 vasp.5.4.4.18Apr17-6-g9f103f2a35 (build Jun 11 2020 13:42:08) complex          
  
 executed on             LinuxIFC date 2021.11.22  15:07:56
 running on   48 total cores
 each image running on   12 cores
 distrk:  each k-point on   12 cores,    1 groups
 distr:  one band on NCORES_PER_BAND=  12 cores,    1 groups


--------------------------------------------------------------------------------------------------------


 INCAR:
 POTCAR:    PAW_PBE Cu 22Jun2005                  
 POTCAR:    PAW_PBE N 08Apr2002                   
 POTCAR:    PAW_PBE O 08Apr2002                   

 ----------------------------------------------------------------------------- 
|                                                                             |
|           W    W    AA    RRRRR   N    N  II  N    N   GGGG   !!!           |
|           W    W   A  A   R    R  NN   N  II  NN   N  G    G  !!!           |
|           W    W  A    A  R    R  N N  N  II  N N  N  G       !!!           |
|           W WW W  AAAAAA  RRRRR   N  N N  II  N  N N  G  GGG   !            |
|           WW  WW  A    A  R   R   N   NN  II  N   NN  G    G                |
|           W    W  A    A  R    R  N    N  II  N    N   GGGG   !!!           |
|                                                                             |
|      For optimal performance we recommend to set                            |
|        NCORE= 4 - approx SQRT( number of cores)                             |
|      NCORE specifies how many cores store one orbital (NPAR=cpu/NCORE).     |
|      This setting can  greatly improve the performance of VASP for DFT.     |
|      The default,   NCORE=1            might be grossly inefficient         |
|      on modern multi-core architectures or massively parallel machines.     |
|      Do your own testing !!!!                                               |
|      Unfortunately you need to use the default for GW and RPA calculations. |
|      (for HF NCORE is supported but not extensively tested yet)             |
|                                                                             |
 ----------------------------------------------------------------------------- 

 POTCAR:    PAW_PBE Cu 22Jun2005                  
   VRHFIN =Cu: d10 p1                                                           
   LEXCH  = PE                                                                  
   EATOM  =  1390.9808 eV,  102.2342 Ry                                         
                                                                                
   TITEL  = PAW_PBE Cu 22Jun2005                                                
   LULTRA =        F    use ultrasoft PP ?                                      
   IUNSCR =        1    unscreen: 0-lin 1-nonlin 2-no                           
   RPACOR =    2.000    partial core radius                                     
   POMASS =   63.546; ZVAL   =   11.000    mass and valenz                      
   RCORE  =    2.300    outmost cutoff radius                                   
   RWIGS  =    2.200; RWIGS  =    1.164    wigner-seitz radius (au A)           
   ENMAX  =  295.446; ENMIN  =  221.585 eV                                      
   ICORE  =        3    local potential                                         
   LCOR   =        T    correct aug charges                                     
   LPAW   =        T    paw PP                                                  
   EAUG   =  586.980                                                            
   DEXC   =    0.000                                                            
   RMAX   =    2.344    core radius for proj-oper                               
   RAUG   =    1.300    factor for augmentation sphere                          
   RDEP   =    2.302    radius for radial grids                                 
   RDEPT  =    1.771    core radius for aug-charge                              
                                                                                
   Atomic configuration                                                         
    9 entries                                                                   
     n  l   j            E        occ.                                          
     1  0  0.50     -8850.2468   2.0000                                         
     2  0  0.50     -1062.3498   2.0000                                         
     2  1  1.50      -916.8226   6.0000                                         
     3  0  0.50      -114.6929   2.0000                                         
     3  1  1.50       -72.1325   6.0000                                         
     3  2  2.50        -5.0394  10.0000                                         
     4  0  0.50        -4.6097   1.0000                                         
     4  1  0.50        -4.0817   0.0000                                         
     4  3  2.50        -1.3606   0.0000                                         
   Description                                                                  
     l       E           TYP  RCUT    TYP  RCUT                                 
     2     -5.0393973     23  2.200                                             
     2     10.8846608     23  2.200                                             
     0     -4.6097109     23  2.200                                             
     0      8.2520465     23  2.200                                             
     1     -2.7211652     23  2.200                                             
     1     21.7055443     23  2.200                                             
     3      2.7211652     23  2.300                                             
  local pseudopotential read in
  partial core-charges read in
  partial kinetic energy density read in
  atomic valenz-charges read in
  non local Contribution for L=           2  read in
    real space projection operators read in
  non local Contribution for L=           2  read in
    real space projection operators read in
  non local Contribution for L=           0  read in
    real space projection operators read in
  non local Contribution for L=           0  read in
    real space projection operators read in
  non local Contribution for L=           1  read in
    real space projection operators read in
  non local Contribution for L=           1  read in
    real space projection operators read in
    PAW grid and wavefunctions read in
 
   number of l-projection  operators is LMAX  =           6
   number of lm-projection operators is LMMAX =          18
 
 POTCAR:    PAW_PBE N 08Apr2002                   
   VRHFIN =N: s2p3                                                              
   LEXCH  = PE                                                                  
   EATOM  =   264.5486 eV,   19.4438 Ry                                         
                                                                                
   TITEL  = PAW_PBE N 08Apr2002                                                 
   LULTRA =        F    use ultrasoft PP ?                                      
   IUNSCR =        1    unscreen: 0-lin 1-nonlin 2-no                           
   RPACOR =    1.200    partial core radius                                     
   POMASS =   14.001; ZVAL   =    5.000    mass and valenz                      
   RCORE  =    1.500    outmost cutoff radius                                   
   RWIGS  =    1.400; RWIGS  =    0.741    wigner-seitz radius (au A)           
   ENMAX  =  400.000; ENMIN  =  300.000 eV                                      
   ICORE  =        2    local potential                                         
   LCOR   =        T    correct aug charges                                     
   LPAW   =        T    paw PP                                                  
   EAUG   =  627.112                                                            
   DEXC   =    0.000                                                            
   RMAX   =    1.529    core radius for proj-oper                               
   RAUG   =    1.300    factor for augmentation sphere                          
   RDEP   =    1.514    radius for radial grids                                 
   RDEPT  =    1.338    core radius for aug-charge                              
                                                                                
   Atomic configuration                                                         
    4 entries                                                                   
     n  l   j            E        occ.                                          
     1  0  0.50      -384.7179   2.0000                                         
     2  0  0.50       -18.5828   2.0000                                         
     2  1  0.50        -7.0898   3.0000                                         
     3  2  1.50        -6.8029   0.0000                                         
   Description                                                                  
     l       E           TYP  RCUT    TYP  RCUT                                 
     0    -18.5828119     23  1.200                                             
     0    -13.5018863     23  1.200                                             
     1     -7.0897853     23  1.500                                             
     1      9.5240782     23  1.500                                             
     2     -6.8029130      7  1.500                                             
  local pseudopotential read in
  partial core-charges read in
  partial kinetic energy density read in
  atomic valenz-charges read in
  non local Contribution for L=           0  read in
    real space projection operators read in
  non local Contribution for L=           0  read in
    real space projection operators read in
  non local Contribution for L=           1  read in
    real space projection operators read in
  non local Contribution for L=           1  read in
    real space projection operators read in
    PAW grid and wavefunctions read in
 
   number of l-projection  operators is LMAX  =           4
   number of lm-projection operators is LMMAX =           8
 
 POTCAR:    PAW_PBE O 08Apr2002                   
   VRHFIN =O: s2p4                                                              
   LEXCH  = PE                                                                  
   EATOM  =   432.3788 eV,   31.7789 Ry                                         
                                                                                
   TITEL  = PAW_PBE O 08Apr2002                                                 
   LULTRA =        F    use ultrasoft PP ?                                      
   IUNSCR =        1    unscreen: 0-lin 1-nonlin 2-no                           
   RPACOR =    1.200    partial core radius                                     
   POMASS =   16.000; ZVAL   =    6.000    mass and valenz                      
   RCORE  =    1.520    outmost cutoff radius                                   
   RWIGS  =    1.550; RWIGS  =    0.820    wigner-seitz radius (au A)           
   ENMAX  =  400.000; ENMIN  =  300.000 eV                                      
   ICORE  =        2    local potential                                         
   LCOR   =        T    correct aug charges                                     
   LPAW   =        T    paw PP                                                  
   EAUG   =  605.392                                                            
   DEXC   =    0.000                                                            
   RMAX   =    1.553    core radius for proj-oper                               
   RAUG   =    1.300    factor for augmentation sphere                          
   RDEP   =    1.550    radius for radial grids                                 
   RDEPT  =    1.329    core radius for aug-charge                              
                                                                                
   Atomic configuration                                                         
    4 entries                                                                   
     n  l   j            E        occ.                                          
     1  0  0.50      -514.6923   2.0000                                         
     2  0  0.50       -23.9615   2.0000                                         
     2  1  0.50        -9.0305   4.0000                                         
     3  2  1.50        -9.5241   0.0000                                         
   Description                                                                  
     l       E           TYP  RCUT    TYP  RCUT                                 
     0    -23.9615318     23  1.200                                             
     0     -9.5240782     23  1.200                                             
     1     -9.0304911     23  1.520                                             
     1      8.1634956     23  1.520                                             
     2     -9.5240782      7  1.500                                             
  local pseudopotential read in
  partial core-charges read in
  partial kinetic energy density read in
  kinetic energy density of atom read in
  atomic valenz-charges read in
  non local Contribution for L=           0  read in
    real space projection operators read in
  non local Contribution for L=           0  read in
    real space projection operators read in
  non local Contribution for L=           1  read in
    real space projection operators read in
  non local Contribution for L=           1  read in
    real space projection operators read in
    PAW grid and wavefunctions read in
 
   number of l-projection  operators is LMAX  =           4
   number of lm-projection operators is LMMAX =           8
 
 Optimization of the real space projectors (new method)

 maximal supplied QI-value         = 16.25
 optimisation between [QCUT,QGAM] = [ 10.24, 20.48] = [ 29.35,117.42] Ry 
 Optimized for a Real-space Cutoff    1.55 Angstroem

   l    n(q)    QCUT    max X(q) W(low)/X(q) W(high)/X(q)  e(spline) 
   2      9    10.239     4.610    0.85E-04    0.29E-03    0.14E-06
   2      9    10.239     8.522    0.15E-03    0.50E-03    0.27E-06
   0     10    10.239    51.609    0.45E-04    0.99E-04    0.10E-06
   0     10    10.239    27.747    0.40E-04    0.93E-04    0.97E-07
   1      9    10.239    20.408    0.15E-03    0.78E-05    0.15E-06
   1      9    10.239    13.425    0.13E-03    0.71E-05    0.14E-06
 Optimization of the real space projectors (new method)

 maximal supplied QI-value         = 25.13
 optimisation between [QCUT,QGAM] = [ 10.05, 20.36] = [ 28.30,116.06] Ry 
 Optimized for a Real-space Cutoff    1.70 Angstroem

   l    n(q)    QCUT    max X(q) W(low)/X(q) W(high)/X(q)  e(spline) 
   0     10    10.053    79.467    0.61E-04    0.98E-04    0.61E-06
   0     10    10.053    66.151    0.60E-04    0.98E-04    0.61E-06
   1     10    10.053     8.350    0.17E-03    0.71E-03    0.45E-05
   1     10    10.053     5.531    0.18E-03    0.77E-03    0.49E-05
 Optimization of the real space projectors (new method)

 maximal supplied QI-value         = 24.76
 optimisation between [QCUT,QGAM] = [ 10.15, 20.30] = [ 28.85,115.39] Ry 
 Optimized for a Real-space Cutoff    1.51 Angstroem

   l    n(q)    QCUT    max X(q) W(low)/X(q) W(high)/X(q)  e(spline) 
   0      9    10.150    20.381    0.17E-03    0.18E-03    0.41E-06
   0      9    10.150    15.268    0.18E-03    0.20E-03    0.43E-06
   1      9    10.150     5.964    0.16E-03    0.20E-03    0.36E-06
   1      9    10.150     5.382    0.13E-03    0.16E-03    0.33E-06
  PAW_PBE Cu 22Jun2005                  :
 energy of atom  1       EATOM=-1390.9808
 kinetic energy error for atom=    0.0232 (will be added to EATOM!!)
  PAW_PBE N 08Apr2002                   :
 energy of atom  2       EATOM= -264.5486
 kinetic energy error for atom=    0.0736 (will be added to EATOM!!)
  PAW_PBE O 08Apr2002                   :
 energy of atom  3       EATOM= -432.3788
 kinetic energy error for atom=    0.1156 (will be added to EATOM!!)
 
 
 POSCAR: Cu N O                                  
  positions in direct lattice
  velocities in cartesian coordinates
 exchange correlation table for  LEXCH =        8
   RHO(1)=    0.500       N(1)  =     2000
   RHO(2)=  100.500       N(2)  =     4000

 VTST: version 3.1, (03/28/14)

 CHAIN: initializing optimizer
 
 OPT: Using VASP QUASI-newton optimizer
 CHAIN: Read ICHAIN            0
 CHAIN: Running the NEB
 NEB:          SPRING     -5.000000
 NEB:          LCLIMB      T
 NEB:     LTANGENTOLD      F
 NEB:           LDNEB      F
 NEB:        LDNEBORG      F
 NEB:        LNEBCELL      F
 NEB:          EFIRST   -255.377738
 NEB:           ELAST   -255.189065
 
 POSCAR: Cu N O                                  
  positions in direct lattice
  No initial velocities read in
 
 POSCAR: Cu N O                                  
  positions in direct lattice
  No initial velocities read in
 


--------------------------------------------------------------------------------------------------------


 ion  position               nearest neighbor table
   1  0.125  0.125  0.410-  22 2.51  18 2.52  17 2.52  13 2.52   4 2.52   5 2.52   2 2.52  21 2.52

   2  0.125  0.375  0.410-  22 2.51  23 2.51  18 2.52  19 2.52  14 2.52   6 2.52   3 2.52   1 2.52

   3  0.125  0.625  0.410-  23 2.51  19 2.52  20 2.52  15 2.52   4 2.52   7 2.52   2 2.52  24 2.52

   4  0.125  0.875  0.410-  20 2.52  17 2.52  16 2.52   3 2.52   1 2.52   8 2.52  24 2.52  21 2.52

   5  0.375  0.125  0.410-  22 2.51  26 2.52  21 2.52  25 2.52   8 2.52   1 2.52   6 2.52   9 2.52

   6  0.375  0.375  0.410-  22 2.52  23 2.52  26 2.52  27 2.52   2 2.52   7 2.52   5 2.52  10 2.52

   7  0.375  0.625  0.410-  23 2.51  27 2.52  24 2.52  28 2.52   8 2.52   3 2.52   6 2.52  11 2.52

   8  0.375  0.875  0.410-  24 2.52  21 2.52  28 2.52  25 2.52   7 2.52   5 2.52   4 2.52  12 2.52

   9  0.625  0.125  0.410-  26 2.52  30 2.52  29 2.52  25 2.52  12 2.52  13 2.52  10 2.52   5 2.52

  10  0.625  0.375  0.410-  30 2.52  31 2.52  26 2.52  27 2.52  14 2.52   9 2.52  11 2.52   6 2.52

  11  0.625  0.625  0.410-  27 2.52  31 2.52  32 2.52  28 2.52  12 2.52  15 2.52  10 2.52   7 2.52

  12  0.625  0.875  0.410-  32 2.52  29 2.52  28 2.52  25 2.52  11 2.52   9 2.52  16 2.52   8 2.52

  13  0.875  0.125  0.410-  17 2.52  18 2.52  30 2.52   1 2.52  16 2.52   9 2.52  14 2.52  29 2.52

  14  0.875  0.375  0.410-  18 2.52  19 2.52  30 2.52  31 2.52   2 2.52  10 2.52  13 2.52  15 2.52

  15  0.875  0.625  0.410-  19 2.52  20 2.52  31 2.52   3 2.52  16 2.52  11 2.52  14 2.52  32 2.52

  16  0.875  0.875  0.410-  20 2.52  17 2.52   4 2.52  15 2.52  13 2.52  12 2.52  32 2.52  29 2.52

  17  1.000  1.000  0.470-  16 2.52  13 2.52   4 2.52  20 2.52   1 2.52  18 2.52  29 2.53  21 2.53
                            45 2.54  33 2.55  36 2.55  48 2.55
  18  1.000  0.250  0.470-  14 2.52   2 2.52  13 2.52   1 2.52  22 2.52  19 2.52  17 2.52  30 2.52
                            46 2.54  33 2.55  45 2.55  34 2.55
  19  1.000  0.500  0.470-  15 2.52  14 2.52   3 2.52   2 2.52  23 2.52  18 2.52  20 2.52  31 2.52
                            46 2.54  47 2.55  35 2.55  34 2.55
  20  1.000  0.750  0.470-  16 2.52   4 2.52  15 2.52  17 2.52   3 2.52  19 2.52  32 2.53  24 2.53
                            47 2.54  35 2.54  48 2.55  36 2.55
  21  0.250  0.000  0.470-  25 2.52   5 2.52  22 2.52   8 2.52   1 2.52  24 2.52   4 2.52  17 2.53
                            40 2.54  33 2.54  36 2.55  37 2.56
  22  0.250  0.250  0.469-   1 2.51   5 2.51   2 2.51   6 2.52  21 2.52  18 2.52  26 2.52  23 2.53
                            38 2.53  33 2.55  34 2.55  37 2.55
  23  0.250  0.500  0.469-   3 2.51   7 2.51   2 2.51   6 2.52  24 2.52  19 2.52  27 2.52  22 2.53
                            38 2.53  35 2.55  34 2.55  39 2.56
  24  0.250  0.750  0.470-  28 2.52   8 2.52   7 2.52  23 2.52   4 2.52  21 2.52   3 2.52  20 2.53
                            35 2.54  40 2.54  36 2.55  39 2.56
  25  0.500  0.000  0.470-  29 2.52  21 2.52  26 2.52  12 2.52   8 2.52   9 2.52   5 2.52  28 2.52
                            40 2.54  44 2.54  41 2.55  37 2.56
  26  0.500  0.250  0.470-   9 2.52   5 2.52  10 2.52  30 2.52   6 2.52  25 2.52  22 2.52  27 2.53
                            38 2.53  42 2.54  37 2.54  41 2.54
  27  0.500  0.500  0.470-  11 2.52   7 2.52  31 2.52  10 2.52   6 2.52  28 2.52  23 2.52  26 2.53
                            38 2.53  42 2.54  39 2.54  43 2.54
  28  0.500  0.750  0.470-  32 2.52  24 2.52  27 2.52   8 2.52  12 2.52  25 2.52   7 2.52  11 2.52
                            44 2.54  40 2.54  43 2.55  39 2.55
  29  0.750  0.000  0.470-  25 2.52   9 2.52  12 2.52  30 2.52  13 2.52  32 2.52  16 2.52  17 2.53
                            45 2.54  44 2.54  48 2.55  41 2.56
  30  0.750  0.250  0.470-  10 2.52   9 2.52  26 2.52  14 2.52  13 2.52  29 2.52  31 2.52  18 2.52
                            46 2.54  45 2.55  41 2.55  42 2.55
  31  0.750  0.500  0.470-  10 2.52  11 2.52  27 2.52  14 2.52  15 2.52  30 2.52  32 2.52  19 2.52
                            46 2.54  47 2.55  42 2.55  43 2.55
  32  0.750  0.750  0.470-  28 2.52  11 2.52  12 2.52  31 2.52  15 2.52  16 2.52  29 2.52  20 2.53
                            47 2.54  44 2.54  48 2.55  43 2.56
  33  0.125  0.125  0.530-  54 2.51  36 2.52  49 2.52  53 2.52  50 2.52  45 2.52  34 2.53  37 2.53
                            21 2.54  17 2.55  18 2.55  22 2.55
  34  0.126  0.375  0.530-  54 2.51  55 2.51  38 2.51  51 2.52  50 2.52  35 2.53  33 2.53  46 2.53
                            23 2.55  19 2.55  22 2.55  18 2.55
  35  0.125  0.625  0.530-  55 2.51  36 2.52  52 2.52  56 2.52  51 2.52  47 2.52  34 2.53  39 2.53
                            24 2.54  20 2.54  19 2.55  23 2.55
  36  0.125  0.875  0.530-  56 2.52  53 2.52  49 2.52  52 2.52  33 2.52  35 2.52  40 2.52  48 2.53
                            21 2.55  24 2.55  17 2.55  20 2.55
  37  0.376  0.127  0.531-  41 2.50  38 2.51  54 2.51  57 2.52  53 2.53  33 2.53  40 2.54  26 2.54
                            58 2.55  22 2.55  25 2.56  21 2.56
  38  0.375  0.375  0.529-  37 2.51  39 2.51  42 2.51  34 2.51  23 2.53  22 2.53  27 2.53  26 2.53
                            55 2.55  54 2.55  58 2.64  59 2.64
  39  0.376  0.624  0.531-  43 2.50  38 2.51  55 2.51  60 2.53  56 2.53  35 2.53  40 2.54  27 2.54
                            59 2.55  28 2.55  23 2.56  24 2.56
  40  0.375  0.875  0.530-  60 2.52  53 2.52  57 2.52  56 2.52  36 2.52  44 2.52  39 2.54  37 2.54
                            21 2.54  24 2.54  25 2.54  28 2.54
  41  0.624  0.126  0.531-  37 2.50  62 2.51  42 2.51  57 2.52  61 2.52  58 2.53  45 2.54  44 2.54
                            26 2.54  30 2.55  25 2.55  29 2.56
  42  0.623  0.375  0.530-  38 2.51  41 2.51  43 2.51  63 2.53  62 2.53  27 2.54  26 2.54  46 2.54
                            31 2.55  30 2.55  58 2.59  59 2.59
  43  0.624  0.624  0.531-  39 2.50  63 2.51  42 2.51  60 2.52  64 2.52  59 2.53  47 2.53  44 2.54
                            27 2.54  28 2.55  31 2.55  32 2.56
  44  0.625  0.875  0.530-  60 2.52  57 2.52  61 2.52  64 2.52  40 2.52  48 2.52  43 2.54  41 2.54
                            29 2.54  32 2.54  25 2.54  28 2.54
  45  0.875  0.125  0.530-  62 2.51  48 2.52  49 2.52  50 2.52  61 2.52  33 2.52  46 2.53  41 2.54
                            29 2.54  17 2.54  18 2.55  30 2.55
  46  0.875  0.375  0.530-  63 2.51  62 2.51  50 2.52  51 2.52  47 2.53  45 2.53  34 2.53  42 2.54
                            31 2.54  19 2.54  18 2.54  30 2.54
  47  0.875  0.625  0.530-  63 2.51  48 2.52  52 2.52  51 2.52  64 2.52  35 2.52  46 2.53  43 2.53
                            32 2.54  20 2.54  19 2.55  31 2.55
  48  0.875  0.875  0.530-  61 2.52  64 2.52  49 2.52  52 2.52  45 2.52  47 2.52  44 2.52  36 2.53
                            29 2.55  32 2.55  17 2.55  20 2.55
  49  1.000  0.000  0.590-  48 2.52  36 2.52  45 2.52  33 2.52  50 2.52  53 2.52  61 2.53  52 2.53

  50  1.000  0.250  0.589-  54 2.51  62 2.51  51 2.52  46 2.52  45 2.52  34 2.52  49 2.52  33 2.52

  51  1.000  0.500  0.589-  55 2.51  63 2.51  50 2.52  34 2.52  46 2.52  47 2.52  52 2.52  35 2.52

  52  1.000  0.750  0.590-  48 2.52  36 2.52  47 2.52  35 2.52  51 2.52  56 2.52  64 2.53  49 2.53

  53  0.250  1.000  0.590-  54 2.51  36 2.52  40 2.52  56 2.52  57 2.52  33 2.52  49 2.52  37 2.53

  54  0.248  0.249  0.589-  33 2.51  37 2.51  50 2.51  34 2.51  53 2.51  55 2.54  38 2.55  58 2.56

  55  0.248  0.501  0.589-  35 2.51  39 2.51  51 2.51  34 2.51  56 2.51  54 2.54  38 2.55  59 2.56

  56  0.250  0.750  0.590-  55 2.51  36 2.52  40 2.52  53 2.52  60 2.52  35 2.52  52 2.52  39 2.53

  57  0.500  0.999  0.590-  58 2.49  60 2.50  44 2.52  40 2.52  53 2.52  41 2.52  61 2.52  37 2.52

  58  0.502  0.245  0.592-  65 1.93  57 2.49  62 2.52  41 2.53  37 2.55  54 2.56  42 2.59  59 2.62
                            38 2.64
  59  0.502  0.505  0.592-  65 1.93  60 2.49  63 2.52  43 2.53  39 2.55  55 2.56  42 2.59  58 2.62
                            38 2.64
  60  0.500  0.751  0.590-  59 2.49  57 2.50  44 2.52  40 2.52  56 2.52  64 2.52  43 2.52  39 2.53

  61  0.750  0.000  0.590-  48 2.52  44 2.52  62 2.52  57 2.52  45 2.52  41 2.52  64 2.52  49 2.53

  62  0.751  0.250  0.589-  45 2.51  41 2.51  50 2.51  46 2.51  61 2.52  58 2.52  63 2.53  42 2.53

  63  0.751  0.500  0.589-  47 2.51  43 2.51  51 2.51  46 2.51  64 2.52  59 2.52  42 2.53  62 2.53

  64  0.750  0.750  0.590-  48 2.52  44 2.52  63 2.52  60 2.52  43 2.52  47 2.52  61 2.52  52 2.53

  65  0.464  0.375  0.638-  66 1.21  58 1.93  59 1.93
  66  0.463  0.375  0.678-  65 1.21
 
  LATTYP: Found a simple tetragonal cell.
 ALAT       =    10.0912000000
 C/A-ratio  =     2.9728872681
  
  Lattice vectors:
  
 A1 = (  10.0912000000,   0.0000000000,   0.0000000000)
 A2 = (   0.0000000000,  10.0912000000,   0.0000000000)
 A3 = (   0.0000000000,   0.0000000000,  30.0000000000)


Analysis of symmetry for initial positions (statically):
=====================================================================
 Subroutine PRICEL returns:
 Original cell was already a primitive cell.
 

 Routine SETGRP: Setting up the symmetry group for a 
 simple tetragonal supercell.


 Subroutine GETGRP returns: Found  1 space group operations
 (whereof  1 operations were pure point group operations)
 out of a pool of 16 trial point group operations.


The static configuration has the point symmetry C_1 .


Analysis of symmetry for dynamics (positions and initial velocities):
=====================================================================
 Subroutine PRICEL returns:
 Original cell was already a primitive cell.
 

 Routine SETGRP: Setting up the symmetry group for a 
 simple tetragonal supercell.


 Subroutine GETGRP returns: Found  1 space group operations
 (whereof  1 operations were pure point group operations)
 out of a pool of 16 trial point group operations.


The dynamic configuration has the point symmetry C_1 .


Analysis of constrained symmetry for selective dynamics:
=====================================================================
 Subroutine PRICEL returns:
 Original cell was already a primitive cell.
 

 Routine SETGRP: Setting up the symmetry group for a 
 simple tetragonal supercell.


 Subroutine GETGRP returns: Found  1 space group operations
 (whereof  1 operations were pure point group operations)
 out of a pool of 16 trial point group operations.


The constrained configuration has the point symmetry C_1 .


Analysis of structural, dynamic, and magnetic symmetry:
=====================================================================
 Subroutine PRICEL returns:
 Original cell was already a primitive cell.
 

 Routine SETGRP: Setting up the symmetry group for a 
 simple tetragonal supercell.


 Subroutine GETGRP returns: Found  1 space group operations
 (whereof  1 operations were pure point group operations)
 out of a pool of 16 trial point group operations.


The magnetic configuration has the point symmetry C_1 .


 Subroutine INISYM returns: Found  1 space group operations
 (whereof  1 operations are pure point group operations),
 and found     1 'primitive' translations

 
 
 KPOINTS: K-Point Grid                            

Automatic generation of k-mesh.
Space group operators:
 irot       det(A)        alpha          n_x          n_y          n_z        tau_x        tau_y        tau_z
    1     1.000000     0.000000     1.000000     0.000000     0.000000     0.000000     0.000000     0.000000
 
 Subroutine IBZKPT returns following result:
 ===========================================
 
 Found      8 irreducible k-points:
 
 Following reciprocal coordinates:
            Coordinates               Weight
  0.125000  0.125000  0.000000      2.000000
  0.375000  0.125000  0.000000      2.000000
 -0.375000  0.125000  0.000000      2.000000
 -0.125000  0.125000  0.000000      2.000000
  0.125000  0.375000  0.000000      2.000000
  0.375000  0.375000  0.000000      2.000000
 -0.375000  0.375000  0.000000      2.000000
 -0.125000  0.375000  0.000000      2.000000
 
 Following cartesian coordinates:
            Coordinates               Weight
  0.012387  0.012387  0.000000      2.000000
  0.037161  0.012387  0.000000      2.000000
 -0.037161  0.012387  0.000000      2.000000
 -0.012387  0.012387  0.000000      2.000000
  0.012387  0.037161  0.000000      2.000000
  0.037161  0.037161  0.000000      2.000000
 -0.037161  0.037161  0.000000      2.000000
 -0.012387  0.037161  0.000000      2.000000
 


--------------------------------------------------------------------------------------------------------




 Dimension of arrays:
   k-points           NKPTS =      8   k-points in BZ     NKDIM =      8   number of bands    NBANDS=    462
   number of dos      NEDOS =   1200   number of ions     NIONS =     66
   non local maximal  LDIM  =      6   non local SUM 2l+1 LMDIM =     18
   total plane-waves  NPLWV = 960400
   max r-space proj   IRMAX =   6495   max aug-charges    IRDMAX=   9304
   dimension x,y,z NGX =    70 NGY =   70 NGZ =  196
   dimension x,y,z NGXF=   140 NGYF=  140 NGZF=  392
   support grid    NGXF=   140 NGYF=  140 NGZF=  392
   ions per type =              64   1   1
   NGX,Y,Z   is equivalent  to a cutoff of  11.53, 11.53, 10.86 a.u.
   NGXF,Y,Z  is equivalent  to a cutoff of  23.06, 23.06, 21.72 a.u.

 SYSTEM =  Pd_111_surface                          
 POSCAR =  Cu N O                                  

 Startparameter for this run:
   NWRITE =      2    write-flag & timer
   PREC   = accura    normal or accurate (medium, high low for compatibility)
   ISTART =      0    job   : 0-new  1-cont  2-samecut
   ICHARG =      2    charge: 1-file 2-atom 10-const
   ISPIN  =      2    spin polarized calculation?
   LNONCOLLINEAR =      F non collinear calculations
   LSORBIT =      F    spin-orbit coupling
   INIWAV =      1    electr: 0-lowe 1-rand  2-diag
   LASPH  =      F    aspherical Exc in radial PAW
   METAGGA=      F    non-selfconsistent MetaGGA calc.

 Electronic Relaxation 1
   ENCUT  =  400.0 eV  29.40 Ry    5.42 a.u.  16.46 16.46 48.92*2*pi/ulx,y,z
   ENINI  =  400.0     initial cutoff
   ENAUG  =  627.1 eV  augmentation charge cutoff
   NELM   =    100;   NELMIN=  2; NELMDL= -5     # of ELM steps 
   EDIFF  = 0.1E-04   stopping-criterion for ELM
   LREAL  =      T    real-space projection
   NLSPLINE    = F    spline interpolate recip. space projectors
   LCOMPAT=      F    compatible to vasp.4.4
   GGA_COMPAT  = T    GGA compatible to vasp.4.4-vasp.4.6
   LMAXPAW     = -100 max onsite density
   LMAXMIX     =    2 max onsite mixed and CHGCAR
   VOSKOWN=      0    Vosko Wilk Nusair interpolation
   ROPT   =   -0.00025  -0.00025  -0.00025
 Ionic relaxation
   EDIFFG = -.5E-01   stopping-criterion for IOM
   NSW    =   1000    number of steps for IOM
   NBLOCK =      1;   KBLOCK =   1000    inner block; outer block 
   IBRION =      1    ionic relax: 0-MD 1-quasi-New 2-CG
   NFREE  =      0    steps in history (QN), initial steepest desc. (CG)
   ISIF   =      2    stress and relaxation
   IWAVPR =     11    prediction:  0-non 1-charg 2-wave 3-comb
   ISYM   =      2    0-nonsym 1-usesym 2-fastsym
   LCORR  =      T    Harris-Foulkes like correction to forces

   POTIM  = 0.3000    time-step for ionic-motion
   TEIN   =    0.0    initial temperature
   TEBEG  =    0.0;   TEEND  =   0.0 temperature during run
   SMASS  =  -3.00    Nose mass-parameter (am)
   estimated Nose-frequenzy (Omega)   =  0.10E-29 period in steps =****** mass=  -0.233E-26a.u.
   SCALEE = 1.0000    scale energy and forces
   NPACO  =    256;   APACO  = 16.0  distance and # of slots for P.C.
   PSTRESS=    0.0 pullay stress

  Mass of Ions in am
   POMASS =  63.55 14.00 16.00
  Ionic Valenz
   ZVAL   =  11.00  5.00  6.00
  Atomic Wigner-Seitz radii
   RWIGS  =  -1.00 -1.00 -1.00
  virtual crystal weights 
   VCA    =   1.00  1.00  1.00
   NELECT =     715.0000    total number of electrons
   NUPDOWN=      -1.0000    fix difference up-down

 DOS related values:
   EMIN   =  10.00;   EMAX   =-10.00  energy-range for DOS
   EFERMI =   0.00
   ISMEAR =     1;   SIGMA  =   0.20  broadening in eV -4-tet -1-fermi 0-gaus

 Electronic relaxation 2 (details)
   IALGO  =     68    algorithm
   LDIAG  =      T    sub-space diagonalisation (order eigenvalues)
   LSUBROT=      F    optimize rotation matrix (better conditioning)
   TURBO    =      0    0=normal 1=particle mesh
   IRESTART =      0    0=no restart 2=restart with 2 vectors
   NREBOOT  =      0    no. of reboots
   NMIN     =      0    reboot dimension
   EREF     =   0.00    reference energy to select bands
   IMIX   =      4    mixing-type and parameters
     AMIX     =   0.40;   BMIX     =  1.00
     AMIX_MAG =   1.60;   BMIX_MAG =  1.00
     AMIN     =   0.10
     WC   =   100.;   INIMIX=   1;  MIXPRE=   1;  MAXMIX= -45

 Intra band minimization:
   WEIMIN = 0.0010     energy-eigenvalue tresh-hold
   EBREAK =  0.54E-08  absolut break condition
   DEPER  =   0.30     relativ break condition  

   TIME   =   0.40     timestep for ELM

  volume/ion in A,a.u.               =      46.29       312.36
  Fermi-wavevector in a.u.,A,eV,Ry     =   1.008884  1.906514 13.848647  1.017847
  Thomas-Fermi vector in A             =   2.141778
 
 Write flags
   LWAVE        =      F    write WAVECAR
   LDOWNSAMPLE  =      F    k-point downsampling of WAVECAR
   LCHARG       =      F    write CHGCAR
   LVTOT        =      F    write LOCPOT, total local potential
   LVHAR        =      F    write LOCPOT, Hartree potential only
   LELF         =      F    write electronic localiz. function (ELF)
   LORBIT       =     11    0 simple, 1 ext, 2 COOP (PROOUT), +10 PAW based schemes


 Dipole corrections
   LMONO  =      F    monopole corrections only (constant potential shift)
   LDIPOL =      T    correct potential (dipole corrections)
   IDIPOL =      3    1-x, 2-y, 3-z, 4-all directions 
   EPSILON=  1.0000000 bulk dielectric constant

 Exchange correlation treatment:
   GGA     =    --    GGA type
   LEXCH   =     8    internal setting for exchange type
   VOSKOWN=      0    Vosko Wilk Nusair interpolation
   LHFCALC =     F    Hartree Fock is set to
   LHFONE  =     F    Hartree Fock one center treatment
   AEXX    =    0.0000 exact exchange contribution

 Linear response parameters
   LEPSILON=     F    determine dielectric tensor
   LRPA    =     F    only Hartree local field effects (RPA)
   LNABLA  =     F    use nabla operator in PAW spheres
   LVEL    =     F    velocity operator in full k-point grid
   LINTERFAST=   F  fast interpolation
   KINTER  =     0    interpolate to denser k-point grid
   CSHIFT  =0.1000    complex shift for real part using Kramers Kronig
   OMEGAMAX=  -1.0    maximum frequency
   DEG_THRESHOLD= 0.2000000E-02 threshold for treating states as degnerate
   RTIME   =   -0.100 relaxation time in fs
  (WPLASMAI=    0.000 imaginary part of plasma frequency in eV, 0.658/RTIME)
   DFIELD  = 0.0000000 0.0000000 0.0000000 field for delta impulse in time
 
 Orbital magnetization related:
   ORBITALMAG=     F  switch on orbital magnetization
   LCHIMAG   =     F  perturbation theory with respect to B field
   DQ        =  0.001000  dq finite difference perturbation B field
   LLRAUG    =     F  two centre corrections for induced B field



--------------------------------------------------------------------------------------------------------


 quasi-Newton-method for relaxation of ions
   using selective dynamics as specified on POSCAR
 charge density and potential will be updated during run
 spin polarized calculation
 RMM-DIIS sequential band-by-band and
  variant of blocked Davidson during initial phase
 perform sub-space diagonalisation
    before iterative eigenvector-optimisation
 modified Broyden-mixing scheme, WC =      100.0
 initial mixing is a Kerker type mixing with AMIX =  0.4000 and BMIX =      1.0000
 Hartree-type preconditioning will be used
 using additional bands          104
 real space projection scheme for non local part
 use partial core corrections
 calculate Harris-corrections to forces 
   (improved forces if not selfconsistent)
 use gradient corrections 
 use of overlap-Matrix (Vanderbilt PP)
 Methfessel and Paxton  Order N= 1 SIGMA  =   0.20


--------------------------------------------------------------------------------------------------------


  energy-cutoff  :      400.00
  volume of cell :     3054.97
      direct lattice vectors                 reciprocal lattice vectors
    10.091200000  0.000000000  0.000000000     0.099096242  0.000000000  0.000000000
     0.000000000 10.091200000  0.000000000     0.000000000  0.099096242  0.000000000
     0.000000000  0.000000000 30.000000000     0.000000000  0.000000000  0.033333333

  length of vectors
    10.091200000 10.091200000 30.000000000     0.099096242  0.099096242  0.033333333


 
 k-points in units of 2pi/SCALE and weight: K-Point Grid                            
   0.01238703  0.01238703  0.00000000       0.125
   0.03716109  0.01238703  0.00000000       0.125
  -0.03716109  0.01238703  0.00000000       0.125
  -0.01238703  0.01238703  0.00000000       0.125
   0.01238703  0.03716109  0.00000000       0.125
   0.03716109  0.03716109  0.00000000       0.125
  -0.03716109  0.03716109  0.00000000       0.125
  -0.01238703  0.03716109  0.00000000       0.125
 
 k-points in reciprocal lattice and weights: K-Point Grid                            
   0.12500000  0.12500000  0.00000000       0.125
   0.37500000  0.12500000  0.00000000       0.125
  -0.37500000  0.12500000  0.00000000       0.125
  -0.12500000  0.12500000  0.00000000       0.125
   0.12500000  0.37500000  0.00000000       0.125
   0.37500000  0.37500000  0.00000000       0.125
  -0.37500000  0.37500000  0.00000000       0.125
  -0.12500000  0.37500000  0.00000000       0.125
 
 position of ions in fractional coordinates (direct lattice) 
   0.12493340  0.12499568  0.41037973
   0.12493331  0.37499954  0.41038227
   0.12493387  0.62500309  0.41037986
   0.12493240  0.87499855  0.41037653
   0.37493146  0.12496827  0.41032220
   0.37492804  0.37499955  0.41032100
   0.37493157  0.62503048  0.41032235
   0.37493739  0.87499857  0.41033102
   0.62507006  0.12496844  0.41032228
   0.62507434  0.37499951  0.41032060
   0.62507009  0.62503066  0.41032220
   0.62506378  0.87499889  0.41033096
   0.87506907  0.12499544  0.41037947
   0.87507088  0.37499950  0.41038160
   0.87506952  0.62500376  0.41037933
   0.87506897  0.87499891  0.41037665
   0.99983609  0.99986373  0.46963822
   0.99995480  0.25003857  0.46963725
   0.99995608  0.50003280  0.46963243
   0.99983323  0.75020844  0.46964109
   0.25036792  0.00006086  0.46975964
   0.24991783  0.24977861  0.46939254
   0.24991702  0.50030903  0.46939607
   0.25036824  0.75004009  0.46975459
   0.50000143  0.00000200  0.46971158
   0.50008938  0.24978268  0.46955048
   0.50008896  0.50031527  0.46954984
   0.49999942  0.75010285  0.46971639
   0.74957742  0.00012603  0.46977710
   0.74974347  0.25006405  0.46965187
   0.74974838  0.50000290  0.46965562
   0.74957442  0.74994847  0.46977154
   0.12508815  0.12486508  0.53009484
   0.12562635  0.37510246  0.53018029
   0.12508430  0.62532085  0.53009558
   0.12507029  0.87509466  0.53031934
   0.37599675  0.12673266  0.53053912
   0.37458517  0.37512735  0.52926821
   0.37596870  0.62354756  0.53053128
   0.37491748  0.87513809  0.53019173
   0.62370301  0.12639206  0.53065722
   0.62312845  0.37511037  0.53022793
   0.62372536  0.62384056  0.53064717
   0.62481163  0.87511195  0.53025054
   0.87491095  0.12481501  0.53010512
   0.87491554  0.37506309  0.52999752
   0.87492031  0.62531071  0.53010372
   0.87483006  0.87506475  0.53037245
   0.99995833  0.00027219  0.58956535
   0.99988826  0.25018024  0.58940305
   0.99989645  0.49993884  0.58940445
   0.99995219  0.74984554  0.58956811
   0.25014821  0.99993323  0.58951392
   0.24844706  0.24901865  0.58932327
   0.24846329  0.50118378  0.58932423
   0.25014507  0.75026678  0.58951468
   0.49984556  0.99898832  0.58970915
   0.50157120  0.24526889  0.59247772
   0.50157506  0.50519381  0.59245109
   0.49983908  0.75133716  0.58970734
   0.74970226  0.00008389  0.58955924
   0.75131056  0.24979605  0.58912246
   0.75131195  0.50033071  0.58911550
   0.74968995  0.75003484  0.58955772
   0.46365524  0.37526887  0.63809521
   0.46259029  0.37534607  0.67843621
 
 position of ions in cartesian coordinates  (Angst):
   1.26072797  1.26135642 12.31139195
   1.26072703  3.78419534 12.31146824
   1.26073271  6.30703118 12.31139594
   1.26071780  8.82978539 12.31129586
   3.78350837  1.26107981 12.30966591
   3.78347381  3.78419545 12.30963004
   3.78350948  6.30730761 12.30967055
   3.78356820  8.82978552 12.30993047
   6.30770698  1.26108156 12.30966847
   6.30775020  3.78419504 12.30961806
   6.30770733  6.30730943 12.30966599
   6.30764357  8.82978880 12.30992891
   8.83049702  1.26135397 12.31138399
   8.83051525  3.78419491 12.31144808
   8.83050155  6.30703792 12.31138002
   8.83049594  8.82978902 12.31129942
  10.08954591 10.08982487 14.08914648
  10.09074385  2.52318917 14.08911763
  10.09075678  5.04593095 14.08897277
  10.08951706  7.57050342 14.08923266
   2.52651277  0.00061414 14.09278912
   2.52197086  2.52056593 14.08177628
   2.52196263  5.04871849 14.08188224
   2.52651597  7.56880453 14.09263756
   5.04561448  0.00002015 14.09134737
   5.04650200  2.52060700 14.08651432
   5.04649772  5.04878144 14.08649522
   5.04559413  7.56943787 14.09149170
   7.56413563  0.00127176 14.09331310
   7.56581129  2.52344637 14.08955618
   7.56586088  5.04562928 14.08966854
   7.56410542  7.56788001 14.09314609
   1.26228952  1.26003848 15.90284522
   1.26772058  3.78523399 15.90540883
   1.26225072  6.31023781 15.90286733
   1.26210927  8.83075521 15.90958006
   3.79425837  1.27888461 15.91617346
   3.78001388  3.78548515 15.87804644
   3.79397533  6.29234312 15.91593832
   3.78336730  8.83119347 15.90575188
   6.29391182  1.27544753 15.91971666
   6.28811383  3.78531376 15.90683781
   6.29413736  6.29529982 15.91941502
   6.30509915  8.83092972 15.90751616
   8.82890139  1.25953323 15.90315374
   8.82894772  3.78483661 15.89992559
   8.82899582  6.31013548 15.90311147
   8.82808507  8.83045344 15.91117362
  10.09077949  0.00274675 17.68696037
  10.09007241  2.52461887 17.68209156
  10.09015503  5.04498286 17.68213346
  10.09071757  7.56684128 17.68704323
   2.52429563 10.09052618 17.68541775
   2.50712898  2.51289698 17.67969809
   2.50729271  5.05754579 17.67972694
   2.52426397  7.57109215 17.68544029
   5.04404151 10.08099090 17.69127452
   5.06145529  2.47505746 17.77433169
   5.06149424  5.09801179 17.77353275
   5.04397614  7.58189359 17.69122017
   7.56539540  0.00084658 17.68677723
   7.58162511  2.52074193 17.67367388
   7.58163917  5.04893727 17.67346500
   7.56527121  7.56875161 17.68673153
   4.67883773  3.78691326 19.14285630
   4.66809115  3.78769224 20.35308620
 


--------------------------------------------------------------------------------------------------------


 k-point  1 :   0.1250 0.1250 0.0000  plane waves:   55537
 k-point  2 :   0.3750 0.1250 0.0000  plane waves:   55487
 k-point  3 :  -0.3750 0.1250 0.0000  plane waves:   55487
 k-point  4 :  -0.1250 0.1250 0.0000  plane waves:   55537
 k-point  5 :   0.1250 0.3750 0.0000  plane waves:   55487
 k-point  6 :   0.3750 0.3750 0.0000  plane waves:   55438
 k-point  7 :  -0.3750 0.3750 0.0000  plane waves:   55438
 k-point  8 :  -0.1250 0.3750 0.0000  plane waves:   55487

 maximum and minimum number of plane-waves per node :      4665     4602

 maximum number of plane-waves:     55537
 maximum index in each direction: 
   IXMAX=   16   IYMAX=   16   IZMAX=   48
   IXMIN=  -16   IYMIN=  -16   IZMIN=  -48


 real space projection operators:
  total allocation   :      43823.09 KBytes
  max/ min on nodes  :       3783.97       3132.38


 parallel 3D FFT for wavefunctions:
    minimum data exchange during FFTs selected (reduces bandwidth)
 parallel 3D FFT for charge:
    minimum data exchange during FFTs selected (reduces bandwidth)


 total amount of memory used by VASP MPI-rank0   692163. kBytes
=======================================================================

   base      :      30000. kBytes
   nonlr-proj:      11903. kBytes
   fftplans  :      24435. kBytes
   grid      :      64794. kBytes
   one-center:        186. kBytes
   wavefun   :     560845. kBytes
 
     INWAV:  cpu time    0.0004: real time    0.1488
 Broyden mixing: mesh for mixing (old mesh)
   NGX = 33   NGY = 33   NGZ = 97
  (NGX  =140   NGY  =140   NGZ  =392)
  gives a total of 105633 points

 initial charge density was supplied:
 charge density of overlapping atoms calculated
 number of electron     715.0000000 magnetization      66.0000000
 keeping initial charge density in first step


--------------------------------------------------------------------------------------------------------


 Maximum index for non-local projection operator          558
 Maximum index for augmentation-charges          908 (set IRDMAX)


--------------------------------------------------------------------------------------------------------


 First call to EWALD:  gamma=   0.122
 Maximum number of real-space cells 4x 4x 2
 Maximum number of reciprocal cells 2x 2x 5

    FEWALD:  cpu time    0.0483: real time    0.0439


--------------------------------------- Iteration      1(   1)  ---------------------------------------


    POTLOK:  cpu time    0.8556: real time    1.5489
    SETDIJ:  cpu time    0.2351: real time    0.2230
     EDDAV:  cpu time  299.6459: real time  172.3417
       DOS:  cpu time    0.0654: real time    2.6366
    --------------------------------------------
      LOOP:  cpu time  300.8021: real time  176.7502

 eigenvalue-minimisations  : 14848
 total energy-change (2. order) : 0.6197818E+04  (-0.2504729E+05)
 number of electron     715.0000000 magnetization      66.0000000
 augmentation part      715.0000000 magnetization      66.0000000

 DIPCOR: dipole corrections for dipol
 direction  3 min pos     1,
 dipolmoment           0.000000      0.000000     -0.000046 electrons x Angstroem
 Tr[quadrupol]    -12688.723204

 energy correction for charged system         0.000000 eV
 dipol+quadrupol energy correction           -0.000000 eV
 added-field ion interaction          0.000145 eV  (added to PSCEN)


 Free energy of the ion-electron system (eV)
  ---------------------------------------------------
  alpha Z        PSCENC =      1006.32476642
  Ewald energy   TEWEN  =    585939.16509041
  -Hartree energ DENC   =   -670428.03898177
  -exchange      EXHF   =         0.00000000
  -V(xc)+E(xc)   XCENC  =      2970.91082448
  PAW double counting   =     79149.44203455   -85925.12063508
  entropy T*S    EENTRO =         0.01319750
  eigenvalues    EBANDS =      3767.09502663
  atomic energy  EATOM  =     89718.02717123
  Solvation  Ediel_sol  =         0.00000000
  ---------------------------------------------------
  free energy    TOTEN  =      6197.81849437 eV

  energy without entropy =     6197.80529687  energy(sigma->0) =     6197.81409520


--------------------------------------------------------------------------------------------------------




--------------------------------------- Iteration      1(   2)  ---------------------------------------


     EDDAV:  cpu time  296.1098: real time  170.7908
       DOS:  cpu time    0.2482: real time    0.2489
    --------------------------------------------
      LOOP:  cpu time  296.3580: real time  171.0397

 eigenvalue-minimisations  : 14784
 total energy-change (2. order) :-0.5723872E+04  (-0.5459545E+04)
 number of electron     715.0000000 magnetization      66.0000000
 augmentation part      715.0000000 magnetization      66.0000000

 DIPCOR: dipole corrections for dipol
 direction  3 min pos     1,
 dipolmoment           0.000000      0.000000     -0.000046 electrons x Angstroem
 Tr[quadrupol]    -12688.723204

 energy correction for charged system         0.000000 eV
 dipol+quadrupol energy correction           -0.000000 eV
 added-field ion interaction          0.000145 eV  (added to PSCEN)


 Free energy of the ion-electron system (eV)
  ---------------------------------------------------
  alpha Z        PSCENC =      1006.32476642
  Ewald energy   TEWEN  =    585939.16509041
  -Hartree energ DENC   =   -670428.03898177
  -exchange      EXHF   =         0.00000000
  -V(xc)+E(xc)   XCENC  =      2970.91082448
  PAW double counting   =     79149.44203455   -85925.12063508
  entropy T*S    EENTRO =         0.01257904
  eigenvalues    EBANDS =     -1956.77610247
  atomic energy  EATOM  =     89718.02717123
  Solvation  Ediel_sol  =         0.00000000
  ---------------------------------------------------
  free energy    TOTEN  =       473.94674681 eV

  energy without entropy =      473.93416777  energy(sigma->0) =      473.94255380


--------------------------------------------------------------------------------------------------------




--------------------------------------- Iteration      1(   3)  ---------------------------------------


     EDDAV:  cpu time  310.3905: real time  156.1020
       DOS:  cpu time    0.1326: real time    0.0714
    --------------------------------------------
      LOOP:  cpu time  310.5232: real time  156.1734

 eigenvalue-minimisations  : 15692
 total energy-change (2. order) :-0.6836861E+03  (-0.6288709E+03)
 number of electron     715.0000000 magnetization      66.0000000
 augmentation part      715.0000000 magnetization      66.0000000

 DIPCOR: dipole corrections for dipol
 direction  3 min pos     1,
 dipolmoment           0.000000      0.000000     -0.000046 electrons x Angstroem
 Tr[quadrupol]    -12688.723204

 energy correction for charged system         0.000000 eV
 dipol+quadrupol energy correction           -0.000000 eV
 added-field ion interaction          0.000145 eV  (added to PSCEN)


 Free energy of the ion-electron system (eV)
  ---------------------------------------------------
  alpha Z        PSCENC =      1006.32476642
  Ewald energy   TEWEN  =    585939.16509041
  -Hartree energ DENC   =   -670428.03898177
  -exchange      EXHF   =         0.00000000
  -V(xc)+E(xc)   XCENC  =      2970.91082448
  PAW double counting   =     79149.44203455   -85925.12063508
  entropy T*S    EENTRO =         0.00012235
  eigenvalues    EBANDS =     -2640.44978573
  atomic energy  EATOM  =     89718.02717123
  Solvation  Ediel_sol  =         0.00000000
  ---------------------------------------------------
  free energy    TOTEN  =      -209.73939314 eV

  energy without entropy =     -209.73951549  energy(sigma->0) =     -209.73943392


--------------------------------------------------------------------------------------------------------




--------------------------------------- Iteration      1(   4)  ---------------------------------------


     EDDAV:  cpu time  373.6961: real time  190.0161
       DOS:  cpu time    0.1998: real time    0.1368
    --------------------------------------------
      LOOP:  cpu time  373.8959: real time  190.1528

 eigenvalue-minimisations  : 19896
 total energy-change (2. order) :-0.6201867E+02  (-0.5692376E+02)
 number of electron     715.0000000 magnetization      66.0000000
 augmentation part      715.0000000 magnetization      66.0000000

 DIPCOR: dipole corrections for dipol
 direction  3 min pos     1,
 dipolmoment           0.000000      0.000000     -0.000046 electrons x Angstroem
 Tr[quadrupol]    -12688.723204

 energy correction for charged system         0.000000 eV
 dipol+quadrupol energy correction           -0.000000 eV
 added-field ion interaction          0.000145 eV  (added to PSCEN)


 Free energy of the ion-electron system (eV)
  ---------------------------------------------------
  alpha Z        PSCENC =      1006.32476642
  Ewald energy   TEWEN  =    585939.16509041
  -Hartree energ DENC   =   -670428.03898177
  -exchange      EXHF   =         0.00000000
  -V(xc)+E(xc)   XCENC  =      2970.91082448
  PAW double counting   =     79149.44203455   -85925.12063508
  entropy T*S    EENTRO =         0.04387915
  eigenvalues    EBANDS =     -2702.51220774
  atomic energy  EATOM  =     89718.02717123
  Solvation  Ediel_sol  =         0.00000000
  ---------------------------------------------------
  free energy    TOTEN  =      -271.75805835 eV

  energy without entropy =     -271.80193750  energy(sigma->0) =     -271.77268473


--------------------------------------------------------------------------------------------------------




--------------------------------------- Iteration      1(   5)  ---------------------------------------


     EDDAV:  cpu time  394.2301: real time  197.7969
       DOS:  cpu time    0.2278: real time    0.1644
    CHARGE:  cpu time    7.4433: real time    7.3680
    MIXING:  cpu time    0.0381: real time    0.0191
    --------------------------------------------
      LOOP:  cpu time  401.9393: real time  205.3484

 eigenvalue-minimisations  : 21432
 total energy-change (2. order) :-0.4091845E+01  (-0.3874234E+01)
 number of electron     715.0000852 magnetization      62.3570727
 augmentation part      417.5250073 magnetization      60.9521637

 DIPCOR: dipole corrections for dipol
 direction  3 min pos     1,
 dipolmoment           0.000000      0.000000     -0.000046 electrons x Angstroem
 Tr[quadrupol]    -12688.723204

 energy correction for charged system         0.000000 eV
 dipol+quadrupol energy correction           -0.000000 eV
 added-field ion interaction          0.000145 eV  (added to PSCEN)


 Broyden mixing:
  rms(total) = 0.74883E+01    rms(broyden)= 0.74875E+01
  rms(prec ) = 0.76548E+01
  weight for this iteration     100.00

 Free energy of the ion-electron system (eV)
  ---------------------------------------------------
  alpha Z        PSCENC =      1006.32476642
  Ewald energy   TEWEN  =    585939.16509041
  -Hartree energ DENC   =   -670428.03898177
  -exchange      EXHF   =         0.00000000
  -V(xc)+E(xc)   XCENC  =      2970.91082448
  PAW double counting   =     79149.44203455   -85925.12063508
  entropy T*S    EENTRO =         0.07589656
  eigenvalues    EBANDS =     -2706.63606999
  atomic energy  EATOM  =     89718.02717123
  Solvation  Ediel_sol  =         0.00000000
  ---------------------------------------------------
  free energy    TOTEN  =      -275.84990319 eV

  energy without entropy =     -275.92579975  energy(sigma->0) =     -275.87520204


--------------------------------------------------------------------------------------------------------




--------------------------------------- Iteration      1(   6)  ---------------------------------------


    POTLOK:  cpu time    0.9557: real time    0.9898
    SETDIJ:  cpu time    0.0707: real time    0.0424
    EDDIAG:  cpu time   49.3671: real time   24.7494
  RMM-DIIS:  cpu time  199.7516: real time  100.1388
    ORTHCH:  cpu time    6.8053: real time    3.4599
       DOS:  cpu time    0.1360: real time    0.0682
    CHARGE:  cpu time    7.0292: real time    6.8520
    MIXING:  cpu time    0.0412: real time    0.0206
    --------------------------------------------
      LOOP:  cpu time  264.1567: real time  136.3211

 eigenvalue-minimisations  : 14840
 total energy-change (2. order) : 0.4703438E+02  (-0.7245339E+02)
 number of electron     715.0000944 magnetization      60.0319685
 augmentation part      472.7548691 magnetization      45.2184340

 DIPCOR: dipole corrections for dipol
 direction  3 min pos     1,
 dipolmoment           0.000000      0.000000      0.587534 electrons x Angstroem
 Tr[quadrupol]    -12685.798456

 energy correction for charged system         0.000000 eV
 dipol+quadrupol energy correction           -0.010223 eV
 added-field ion interaction         -1.847397 eV  (added to PSCEN)


 Broyden mixing:
  rms(total) = 0.42720E+01    rms(broyden)= 0.42698E+01
  rms(prec ) = 0.44479E+01
  weight for this iteration     100.00

 eigenvalues of (default mixing * dielectric matrix)
  average eigenvalue GAMMA=   0.7644
  0.7644

 Free energy of the ion-electron system (eV)
  ---------------------------------------------------
  alpha Z        PSCENC =      1004.46700051
  Ewald energy   TEWEN  =    585939.16509041
  -Hartree energ DENC   =   -668564.68453755
  -exchange      EXHF   =         0.00000000
  -V(xc)+E(xc)   XCENC  =      2909.12410345
  PAW double counting   =     80344.84416634   -86775.57027044
  entropy T*S    EENTRO =        -0.04396572
  eigenvalues    EBANDS =     -4804.14427723
  atomic energy  EATOM  =     89718.02717123
  Solvation  Ediel_sol  =         0.00000000
  ---------------------------------------------------
  free energy    TOTEN  =      -228.81551899 eV

  energy without entropy =     -228.77155327  energy(sigma->0) =     -228.80086375


--------------------------------------------------------------------------------------------------------




--------------------------------------- Iteration      1(   7)  ---------------------------------------


    POTLOK:  cpu time    0.9512: real time    0.9191
    SETDIJ:  cpu time    0.0675: real time    0.0405
    EDDIAG:  cpu time   49.4046: real time   24.7689
  RMM-DIIS:  cpu time  198.4987: real time   99.5489
    ORTHCH:  cpu time    6.8668: real time    3.4931
       DOS:  cpu time    0.1914: real time    0.1302
    CHARGE:  cpu time    7.0749: real time    6.9594
    MIXING:  cpu time    0.0415: real time    0.0208
    --------------------------------------------
      LOOP:  cpu time  263.0966: real time  135.8810

 eigenvalue-minimisations  : 14847
 total energy-change (2. order) : 0.4758998E+02  (-0.1532245E+02)
 number of electron     715.0000907 magnetization      57.1604982
 augmentation part      449.3509455 magnetization      40.8196144

 DIPCOR: dipole corrections for dipol
 direction  3 min pos     1,
 dipolmoment           0.000000      0.000000     -0.410097 electrons x Angstroem
 Tr[quadrupol]    -12693.843940

 energy correction for charged system         0.000000 eV
 dipol+quadrupol energy correction           -0.004981 eV
 added-field ion interaction          1.289478 eV  (added to PSCEN)


 Broyden mixing:
  rms(total) = 0.18861E+01    rms(broyden)= 0.18837E+01
  rms(prec ) = 0.19875E+01
  weight for this iteration     100.00

 eigenvalues of (default mixing * dielectric matrix)
  average eigenvalue GAMMA=   0.8194
  1.0611  0.5777

 Free energy of the ion-electron system (eV)
  ---------------------------------------------------
  alpha Z        PSCENC =      1007.60911806
  Ewald energy   TEWEN  =    585939.16509041
  -Hartree energ DENC   =   -669660.54680518
  -exchange      EXHF   =         0.00000000
  -V(xc)+E(xc)   XCENC  =      2948.12280340
  PAW double counting   =     82256.56042441   -89022.46480466
  entropy T*S    EENTRO =        -0.01233865
  eigenvalues    EBANDS =     -3367.68619438
  atomic energy  EATOM  =     89718.02717123
  Solvation  Ediel_sol  =         0.00000000
  ---------------------------------------------------
  free energy    TOTEN  =      -181.22553536 eV

  energy without entropy =     -181.21319671  energy(sigma->0) =     -181.22142248


--------------------------------------------------------------------------------------------------------




--------------------------------------- Iteration      1(   8)  ---------------------------------------


    POTLOK:  cpu time    0.9389: real time    0.9220
    SETDIJ:  cpu time    0.0670: real time    0.0403
    EDDIAG:  cpu time   49.7509: real time   24.9527
  RMM-DIIS:  cpu time  200.2213: real time  100.4232
    ORTHCH:  cpu time    6.8482: real time    3.5017
       DOS:  cpu time    0.1354: real time    0.0679
    CHARGE:  cpu time    7.1619: real time    6.9865
    MIXING:  cpu time    0.0428: real time    0.0214
    --------------------------------------------
      LOOP:  cpu time  265.1665: real time  136.9158

 eigenvalue-minimisations  : 14928
 total energy-change (2. order) : 0.6832752E+01  (-0.1829713E+01)
 number of electron     715.0000900 magnetization      55.1422745
 augmentation part      449.1608715 magnetization      36.7566678

 DIPCOR: dipole corrections for dipol
 direction  3 min pos     1,
 dipolmoment           0.000000      0.000000      1.025470 electrons x Angstroem
 Tr[quadrupol]    -12695.353715

 energy correction for charged system         0.000000 eV
 dipol+quadrupol energy correction           -0.031144 eV
 added-field ion interaction         -3.224411 eV  (added to PSCEN)


 Broyden mixing:
  rms(total) = 0.19956E+01    rms(broyden)= 0.19945E+01
  rms(prec ) = 0.23553E+01
  weight for this iteration     100.00

 eigenvalues of (default mixing * dielectric matrix)
  average eigenvalue GAMMA=   0.6744
  1.1155  0.5926  0.3151

 Free energy of the ion-electron system (eV)
  ---------------------------------------------------
  alpha Z        PSCENC =      1003.06906692
  Ewald energy   TEWEN  =    585939.16509041
  -Hartree energ DENC   =   -669730.06702546
  -exchange      EXHF   =         0.00000000
  -V(xc)+E(xc)   XCENC  =      2954.82412082
  PAW double counting   =     83325.92203927   -90155.04356861
  entropy T*S    EENTRO =         0.04428805
  eigenvalues    EBANDS =     -3230.33396598
  atomic energy  EATOM  =     89718.02717123
  Solvation  Ediel_sol  =         0.00000000
  ---------------------------------------------------
  free energy    TOTEN  =      -174.39278335 eV

  energy without entropy =     -174.43707139  energy(sigma->0) =     -174.40754603


--------------------------------------------------------------------------------------------------------




--------------------------------------- Iteration      1(   9)  ---------------------------------------


    POTLOK:  cpu time    0.9491: real time    0.9154
    SETDIJ:  cpu time    0.0670: real time    0.0403
    EDDIAG:  cpu time   49.4550: real time   24.8016
  RMM-DIIS:  cpu time  200.4875: real time  100.6097
    ORTHCH:  cpu time    6.8578: real time    3.5161
       DOS:  cpu time    0.2147: real time    0.1527
    CHARGE:  cpu time    7.1079: real time    7.0155
    MIXING:  cpu time    0.0430: real time    0.0216
    --------------------------------------------
      LOOP:  cpu time  265.1821: real time  137.0729

 eigenvalue-minimisations  : 14879
 total energy-change (2. order) : 0.1287513E+02  (-0.8585136E+00)
 number of electron     715.0000910 magnetization      49.3687267
 augmentation part      450.2205086 magnetization      31.0759777

 DIPCOR: dipole corrections for dipol
 direction  3 min pos     1,
 dipolmoment           0.000000      0.000000     -0.124403 electrons x Angstroem
 Tr[quadrupol]    -12697.933452

 energy correction for charged system         0.000000 eV
 dipol+quadrupol energy correction           -0.000458 eV
 added-field ion interaction          0.391164 eV  (added to PSCEN)


 Broyden mixing:
  rms(total) = 0.14012E+01    rms(broyden)= 0.14003E+01
  rms(prec ) = 0.14448E+01
  weight for this iteration     100.00

 eigenvalues of (default mixing * dielectric matrix)
  average eigenvalue GAMMA=   0.8104
  1.4002  0.9713  0.6195  0.2505

 Free energy of the ion-electron system (eV)
  ---------------------------------------------------
  alpha Z        PSCENC =      1006.71532665
  Ewald energy   TEWEN  =    585939.16509041
  -Hartree energ DENC   =   -669825.43160259
  -exchange      EXHF   =         0.00000000
  -V(xc)+E(xc)   XCENC  =      2956.42988548
  PAW double counting   =     83924.23522835   -90782.75862008
  entropy T*S    EENTRO =        -0.01601088
  eigenvalues    EBANDS =     -3097.88412213
  atomic energy  EATOM  =     89718.02717123
  Solvation  Ediel_sol  =         0.00000000
  ---------------------------------------------------
  free energy    TOTEN  =      -161.51765356 eV

  energy without entropy =     -161.50164268  energy(sigma->0) =     -161.51231660


--------------------------------------------------------------------------------------------------------




--------------------------------------- Iteration      1(  10)  ---------------------------------------


    POTLOK:  cpu time    0.9237: real time    0.9039
    SETDIJ:  cpu time    0.0683: real time    0.0412
    EDDIAG:  cpu time   49.6462: real time   24.8833
  RMM-DIIS:  cpu time  199.3014: real time   99.9457
    ORTHCH:  cpu time    6.7795: real time    3.4001
       DOS:  cpu time    0.1291: real time    0.0647
    CHARGE:  cpu time    7.3826: real time    7.2034
    MIXING:  cpu time    0.0480: real time    0.0241
    --------------------------------------------
      LOOP:  cpu time  264.2787: real time  136.4663

 eigenvalue-minimisations  : 14895
 total energy-change (2. order) : 0.7572264E+01  (-0.1194471E+01)
 number of electron     715.0000904 magnetization      41.9178362
 augmentation part      450.6084317 magnetization      23.5259447

 DIPCOR: dipole corrections for dipol
 direction  3 min pos     1,
 dipolmoment           0.000000      0.000000      0.117947 electrons x Angstroem
 Tr[quadrupol]    -12702.408827

 energy correction for charged system         0.000000 eV
 dipol+quadrupol energy correction           -0.000412 eV
 added-field ion interaction         -0.370862 eV  (added to PSCEN)


 Broyden mixing:
  rms(total) = 0.11669E+01    rms(broyden)= 0.11665E+01
  rms(prec ) = 0.11826E+01
  weight for this iteration     100.00

 eigenvalues of (default mixing * dielectric matrix)
  average eigenvalue GAMMA=   1.0643
  2.8156  1.1128  0.6365  0.5029  0.2538

 Free energy of the ion-electron system (eV)
  ---------------------------------------------------
  alpha Z        PSCENC =      1005.95334697
  Ewald energy   TEWEN  =    585939.16509041
  -Hartree energ DENC   =   -670020.95269676
  -exchange      EXHF   =         0.00000000
  -V(xc)+E(xc)   XCENC  =      2956.77876084
  PAW double counting   =     85148.91037433   -92063.72136169
  entropy T*S    EENTRO =        -0.00632417
  eigenvalues    EBANDS =     -2838.09975053
  atomic energy  EATOM  =     89718.02717123
  Solvation  Ediel_sol  =         0.00000000
  ---------------------------------------------------
  free energy    TOTEN  =      -153.94538938 eV

  energy without entropy =     -153.93906520  energy(sigma->0) =     -153.94328132


--------------------------------------------------------------------------------------------------------




--------------------------------------- Iteration      1(  11)  ---------------------------------------


    POTLOK:  cpu time    0.9379: real time    0.9207
    SETDIJ:  cpu time    0.0709: real time    0.0439
    EDDIAG:  cpu time   49.3486: real time   24.7575
  RMM-DIIS:  cpu time  199.1052: real time   99.8180
    ORTHCH:  cpu time    6.7782: real time    3.3992
       DOS:  cpu time    0.1283: real time    0.0643
    CHARGE:  cpu time    7.3824: real time    7.2145
    MIXING:  cpu time    0.0432: real time    0.0216
    --------------------------------------------
      LOOP:  cpu time  263.7947: real time  136.2398

 eigenvalue-minimisations  : 14893
 total energy-change (2. order) : 0.6583940E+01  (-0.7203182E+00)
 number of electron     715.0000908 magnetization      35.4302851
 augmentation part      450.9965810 magnetization      17.6933761

 DIPCOR: dipole corrections for dipol
 direction  3 min pos     1,
 dipolmoment           0.000000      0.000000      0.127367 electrons x Angstroem
 Tr[quadrupol]    -12705.497054

 energy correction for charged system         0.000000 eV
 dipol+quadrupol energy correction           -0.000480 eV
 added-field ion interaction         -0.400483 eV  (added to PSCEN)


 Broyden mixing:
  rms(total) = 0.91108E+00    rms(broyden)= 0.90990E+00
  rms(prec ) = 0.92940E+00
  weight for this iteration     100.00

 eigenvalues of (default mixing * dielectric matrix)
  average eigenvalue GAMMA=   1.1995
  3.8707  1.1843  0.8393  0.6491  0.2548  0.3991

 Free energy of the ion-electron system (eV)
  ---------------------------------------------------
  alpha Z        PSCENC =      1005.92365756
  Ewald energy   TEWEN  =    585939.16509041
  -Hartree energ DENC   =   -670171.21243155
  -exchange      EXHF   =         0.00000000
  -V(xc)+E(xc)   XCENC  =      2960.21578694
  PAW double counting   =     86118.88235557   -93077.95807501
  entropy T*S    EENTRO =        -0.00364348
  eigenvalues    EBANDS =     -2640.40136075
  atomic energy  EATOM  =     89718.02717123
  Solvation  Ediel_sol  =         0.00000000
  ---------------------------------------------------
  free energy    TOTEN  =      -147.36144908 eV

  energy without entropy =     -147.35780560  energy(sigma->0) =     -147.36023458


--------------------------------------------------------------------------------------------------------




--------------------------------------- Iteration      1(  12)  ---------------------------------------


    POTLOK:  cpu time    0.9554: real time    0.9333
    SETDIJ:  cpu time    0.0676: real time    0.0409
    EDDIAG:  cpu time   49.8478: real time   25.6695
  RMM-DIIS:  cpu time  199.1152: real time   99.9239
    ORTHCH:  cpu time    6.2908: real time    3.1554
       DOS:  cpu time    0.2585: real time    0.1943
    CHARGE:  cpu time    7.1305: real time    7.0792
    MIXING:  cpu time    0.0490: real time    0.0245
    --------------------------------------------
      LOOP:  cpu time  263.7147: real time  137.0210

 eigenvalue-minimisations  : 14915
 total energy-change (2. order) :-0.6502217E+01  (-0.2272620E+00)
 number of electron     715.0000906 magnetization      32.7098339
 augmentation part      450.6657898 magnetization      16.9089138

 DIPCOR: dipole corrections for dipol
 direction  3 min pos     1,
 dipolmoment           0.000000      0.000000      0.266840 electrons x Angstroem
 Tr[quadrupol]    -12708.109670

 energy correction for charged system         0.000000 eV
 dipol+quadrupol energy correction           -0.002109 eV
 added-field ion interaction         -0.839031 eV  (added to PSCEN)


 Broyden mixing:
  rms(total) = 0.73514E+00    rms(broyden)= 0.73432E+00
  rms(prec ) = 0.76394E+00
  weight for this iteration     100.00

 eigenvalues of (default mixing * dielectric matrix)
  average eigenvalue GAMMA=   1.1741
  4.2502  1.2927  0.8254  0.6856  0.5463  0.2540  0.3647

 Free energy of the ion-electron system (eV)
  ---------------------------------------------------
  alpha Z        PSCENC =      1005.48348144
  Ewald energy   TEWEN  =    585939.16509041
  -Hartree energ DENC   =   -670308.16061336
  -exchange      EXHF   =         0.00000000
  -V(xc)+E(xc)   XCENC  =      2955.67807186
  PAW double counting   =     86209.92732221   -93171.22517974
  entropy T*S    EENTRO =         0.01896508
  eigenvalues    EBANDS =     -2502.77797487
  atomic energy  EATOM  =     89718.02717123
  Solvation  Ediel_sol  =         0.00000000
  ---------------------------------------------------
  free energy    TOTEN  =      -153.86366574 eV

  energy without entropy =     -153.88263082  energy(sigma->0) =     -153.86998743


--------------------------------------------------------------------------------------------------------




--------------------------------------- Iteration      1(  13)  ---------------------------------------


    POTLOK:  cpu time    0.9494: real time    0.9972
    SETDIJ:  cpu time    0.0993: real time    0.0586
    EDDIAG:  cpu time   49.2045: real time   24.6644
  RMM-DIIS:  cpu time  199.1183: real time   99.8537
    ORTHCH:  cpu time    6.7736: real time    3.3978
       DOS:  cpu time    0.1975: real time    0.1323
    CHARGE:  cpu time    7.4193: real time    7.3061
    MIXING:  cpu time    0.0484: real time    0.0242
    --------------------------------------------
      LOOP:  cpu time  263.8104: real time  136.4344

 eigenvalue-minimisations  : 14886
 total energy-change (2. order) :-0.7298916E+01  (-0.1910588E+00)
 number of electron     715.0000906 magnetization      25.4319224
 augmentation part      450.7098350 magnetization      10.8381382

 DIPCOR: dipole corrections for dipol
 direction  3 min pos     1,
 dipolmoment           0.000000      0.000000      0.224533 electrons x Angstroem
 Tr[quadrupol]    -12707.725591

 energy correction for charged system         0.000000 eV
 dipol+quadrupol energy correction           -0.001493 eV
 added-field ion interaction         -0.706006 eV  (added to PSCEN)


 Broyden mixing:
  rms(total) = 0.61828E+00    rms(broyden)= 0.61786E+00
  rms(prec ) = 0.63286E+00
  weight for this iteration     100.00

 eigenvalues of (default mixing * dielectric matrix)
  average eigenvalue GAMMA=   1.3759
  5.5414  1.8823  0.9899  0.9899  0.6260  0.4158  0.2545  0.3070

 Free energy of the ion-electron system (eV)
  ---------------------------------------------------
  alpha Z        PSCENC =      1005.61712177
  Ewald energy   TEWEN  =    585939.16509041
  -Hartree energ DENC   =   -670292.00230616
  -exchange      EXHF   =         0.00000000
  -V(xc)+E(xc)   XCENC  =      2951.02281422
  PAW double counting   =     85980.32618215   -92929.31711669
  entropy T*S    EENTRO =        -0.00124056
  eigenvalues    EBANDS =     -2534.00029830
  atomic energy  EATOM  =     89718.02717123
  Solvation  Ediel_sol  =         0.00000000
  ---------------------------------------------------
  free energy    TOTEN  =      -161.16258193 eV

  energy without entropy =     -161.16134137  energy(sigma->0) =     -161.16216841


--------------------------------------------------------------------------------------------------------




--------------------------------------- Iteration      1(  14)  ---------------------------------------


    POTLOK:  cpu time    0.9202: real time    0.9720
    SETDIJ:  cpu time    0.0669: real time    0.0402
    EDDIAG:  cpu time   49.6407: real time   24.8810
  RMM-DIIS:  cpu time  199.2522: real time  100.6296
    ORTHCH:  cpu time    6.6211: real time    3.3214
       DOS:  cpu time    0.2115: real time    0.1463
    CHARGE:  cpu time    7.4741: real time    7.3764
    MIXING:  cpu time    0.0515: real time    0.0259
    --------------------------------------------
      LOOP:  cpu time  264.2383: real time  137.3929

 eigenvalue-minimisations  : 14860
 total energy-change (2. order) :-0.2319747E+02  (-0.1246736E+01)
 number of electron     715.0000908 magnetization      18.9801125
 augmentation part      450.5802272 magnetization       7.9263028

 DIPCOR: dipole corrections for dipol
 direction  3 min pos     1,
 dipolmoment           0.000000      0.000000      0.093769 electrons x Angstroem
 Tr[quadrupol]    -12706.632523

 energy correction for charged system         0.000000 eV
 dipol+quadrupol energy correction           -0.000260 eV
 added-field ion interaction         -0.294839 eV  (added to PSCEN)


 Broyden mixing:
  rms(total) = 0.45205E+00    rms(broyden)= 0.45182E+00
  rms(prec ) = 0.47345E+00
  weight for this iteration     100.00

 eigenvalues of (default mixing * dielectric matrix)
  average eigenvalue GAMMA=   1.5921
  7.3623  2.6006  1.1119  0.8336  0.8336  0.6269  0.4047  0.2551  0.3002

 Free energy of the ion-electron system (eV)
  ---------------------------------------------------
  alpha Z        PSCENC =      1006.02952213
  Ewald energy   TEWEN  =    585939.16509041
  -Hartree energ DENC   =   -670236.72207476
  -exchange      EXHF   =         0.00000000
  -V(xc)+E(xc)   XCENC  =      2935.74214097
  PAW double counting   =     85222.21605641   -92133.53734029
  entropy T*S    EENTRO =        -0.00735507
  eigenvalues    EBANDS =     -2635.27326397
  atomic energy  EATOM  =     89718.02717123
  Solvation  Ediel_sol  =         0.00000000
  ---------------------------------------------------
  free energy    TOTEN  =      -184.36005294 eV

  energy without entropy =     -184.35269788  energy(sigma->0) =     -184.35760125


--------------------------------------------------------------------------------------------------------




--------------------------------------- Iteration      1(  15)  ---------------------------------------


    POTLOK:  cpu time    0.9230: real time    0.9893
    SETDIJ:  cpu time    0.0672: real time    0.0405
    EDDIAG:  cpu time   49.9253: real time   25.0228
  RMM-DIIS:  cpu time  198.1440: real time   99.3649
    ORTHCH:  cpu time    6.6218: real time    3.3215
       DOS:  cpu time    0.1299: real time    0.0651
    CHARGE:  cpu time    7.3422: real time    7.1634
    MIXING:  cpu time    0.0535: real time    0.0268
    --------------------------------------------
      LOOP:  cpu time  263.2069: real time  135.9945

 eigenvalue-minimisations  : 14839
 total energy-change (2. order) :-0.2194572E+02  (-0.2224279E+01)
 number of electron     715.0000907 magnetization      15.4400537
 augmentation part      449.9589299 magnetization       7.9466028

 DIPCOR: dipole corrections for dipol
 direction  3 min pos     1,
 dipolmoment           0.000000      0.000000      0.244621 electrons x Angstroem
 Tr[quadrupol]    -12705.844035

 energy correction for charged system         0.000000 eV
 dipol+quadrupol energy correction           -0.001772 eV
 added-field ion interaction         -0.769168 eV  (added to PSCEN)


 Broyden mixing:
  rms(total) = 0.38678E+00    rms(broyden)= 0.38637E+00
  rms(prec ) = 0.39886E+00
  weight for this iteration     100.00

 eigenvalues of (default mixing * dielectric matrix)
  average eigenvalue GAMMA=   1.6489
  8.4842  3.0376  1.1744  0.8730  0.8730  0.6196  0.4705  0.4066  0.2552  0.2951

 Free energy of the ion-electron system (eV)
  ---------------------------------------------------
  alpha Z        PSCENC =      1005.55368149
  Ewald energy   TEWEN  =    585939.16509041
  -Hartree energ DENC   =   -670200.08258447
  -exchange      EXHF   =         0.00000000
  -V(xc)+E(xc)   XCENC  =      2922.47923388
  PAW double counting   =     84718.23751857   -91607.93229796
  entropy T*S    EENTRO =         0.01431718
  eigenvalues    EBANDS =     -2701.76790441
  atomic energy  EATOM  =     89718.02717123
  Solvation  Ediel_sol  =         0.00000000
  ---------------------------------------------------
  free energy    TOTEN  =      -206.30577407 eV

  energy without entropy =     -206.32009126  energy(sigma->0) =     -206.31054647


--------------------------------------------------------------------------------------------------------




--------------------------------------- Iteration      1(  16)  ---------------------------------------


    POTLOK:  cpu time    0.9423: real time    0.9207
    SETDIJ:  cpu time    0.0687: real time    0.0412
    EDDIAG:  cpu time   49.5441: real time   24.8349
[...]
   0.104E+02 0.130E+02 -.380E+04   -.104E+02 -.131E+02 0.380E+04   0.521E-01 0.604E-01 0.325E+01   0.572E-04 -.283E-04 -.145E-03
   0.104E+02 -.130E+02 -.380E+04   -.105E+02 0.130E+02 0.380E+04   0.519E-01 -.606E-01 0.324E+01   0.422E-04 -.326E-04 -.103E-03
   0.481E+01 -.130E+02 -.382E+04   -.482E+01 0.130E+02 0.382E+04   0.599E-02 -.664E-01 0.357E+01   0.645E-05 0.349E-04 -.129E-03
   0.285E+02 0.280E+02 -.380E+04   -.286E+02 -.281E+02 0.380E+04   0.139E+00 0.824E-01 0.350E+01   -.123E-04 0.903E-04 -.185E-03
   0.791E+02 0.402E+02 -.373E+04   -.803E+02 -.407E+02 0.373E+04   0.115E+01 0.525E+00 0.414E+01   0.317E-04 0.174E-04 -.927E-04
   0.793E+02 -.401E+02 -.373E+04   -.805E+02 0.406E+02 0.373E+04   0.115E+01 -.526E+00 0.414E+01   0.534E-04 -.521E-04 -.407E-04
   0.286E+02 -.282E+02 -.380E+04   -.287E+02 0.283E+02 0.380E+04   0.139E+00 -.829E-01 0.350E+01   0.520E-04 -.547E-04 -.132E-03
   -.490E+01 0.477E+02 -.379E+04   0.497E+01 -.480E+02 0.379E+04   -.671E-01 0.204E+00 0.337E+01   -.267E-04 0.524E-04 -.140E-03
   -.403E+02 0.138E+03 -.365E+04   0.409E+02 -.142E+03 0.365E+04   -.632E+00 0.346E+01 0.140E+01   -.536E-04 0.499E-04 -.439E-04
   -.403E+02 -.138E+03 -.365E+04   0.409E+02 0.141E+03 0.365E+04   -.631E+00 -.346E+01 0.140E+01   -.211E-04 0.186E-04 0.254E-04
   -.491E+01 -.482E+02 -.379E+04   0.498E+01 0.484E+02 0.379E+04   -.673E-01 -.199E+00 0.337E+01   -.107E-04 -.103E-03 -.829E-04
   -.282E+02 0.220E+02 -.381E+04   0.283E+02 -.221E+02 0.381E+04   -.621E-01 0.398E-01 0.351E+01   0.206E-04 0.310E-04 -.147E-03
   -.661E+02 0.240E+02 -.376E+04   0.665E+02 -.243E+02 0.375E+04   -.400E+00 0.334E+00 0.365E+01   -.571E-04 0.171E-04 -.108E-03
   -.662E+02 -.238E+02 -.376E+04   0.667E+02 0.242E+02 0.375E+04   -.403E+00 -.336E+00 0.365E+01   -.927E-04 -.203E-04 -.670E-04
   -.283E+02 -.222E+02 -.381E+04   0.284E+02 0.222E+02 0.381E+04   -.624E-01 -.402E-01 0.351E+01   -.468E-04 -.280E-04 -.109E-03
   0.270E+02 0.134E+00 -.196E+04   -.282E+02 -.156E+00 0.193E+04   0.113E+01 0.222E-01 0.274E+02   -.177E-04 -.317E-05 -.122E-03
   0.660E+01 -.156E+00 -.265E+04   -.721E+01 0.192E+00 0.271E+04   0.600E+00 -.385E-01 -.568E+02   -.893E-05 0.586E-05 0.151E-04
 -----------------------------------------------------------------------------------------------
   -.238E+01 0.121E-01 0.331E+02   0.329E-12 -.147E-12 -.455E-11   0.238E+01 -.126E-01 -.331E+02   -.602E-04 0.136E-04 0.131E-02
 
 
 POSITION                                       TOTAL-FORCE (eV/Angst)
 -----------------------------------------------------------------------------------
      1.26073      1.26136     12.31139        -0.004625     -0.010546     -0.021741
      1.26073      3.78420     12.31147        -0.005929      0.000854     -0.002280
      1.26073      6.30703     12.31140        -0.004531      0.011836     -0.021817
      1.26072      8.82979     12.31130         0.010478      0.001022      0.031327
      3.78351      1.26108     12.30967         0.010459      0.001770     -0.002348
      3.78347      3.78420     12.30963         0.025838      0.001080      0.012611
      3.78351      6.30731     12.30967         0.010534     -0.000229     -0.002188
      3.78357      8.82979     12.30993         0.004043      0.001122      0.005325
      6.30771      1.26108     12.30967        -0.009052      0.003549     -0.003987
      6.30775      3.78420     12.30962        -0.025023      0.001020      0.011584
      6.30771      6.30731     12.30967        -0.009138     -0.002270     -0.003790
      6.30764      8.82979     12.30993        -0.001259      0.000989      0.004987
      8.83050      1.26135     12.31138        -0.001062     -0.000385      0.009447
      8.83052      3.78419     12.31145        -0.001448      0.000757      0.002573
      8.83050      6.30704     12.31138        -0.001193      0.001379      0.009309
      8.83050      8.82979     12.31130        -0.016864      0.000947      0.019526
     10.08955     10.08982     14.08915        -0.000409     -0.000851     -0.008457
     10.09074      2.52319     14.08912        -0.001133     -0.000128     -0.009049
     10.09076      5.04593     14.08897        -0.001083      0.000211     -0.008470
     10.08952      7.57050     14.08923        -0.000542      0.001150     -0.008830
      2.52651      0.00061     14.09279         0.002353      0.000840     -0.006274
      2.52197      2.52057     14.08178         0.000675     -0.000211     -0.007904
      2.52196      5.04872     14.08188         0.000473      0.001599     -0.009018
      2.52652      7.56880     14.09264         0.001523     -0.000654     -0.005810
      5.04561      0.00002     14.09135         0.000704     -0.000269     -0.006338
      5.04650      2.52061     14.08651         0.001182     -0.002067     -0.007300
      5.04650      5.04878     14.08650         0.001002      0.002443     -0.007213
      5.04559      7.56944     14.09149         0.000705      0.000763     -0.006811
      7.56414      0.00127     14.09331        -0.002970      0.000472     -0.006246
      7.56581      2.52345     14.08956        -0.002324     -0.000515     -0.008595
      7.56586      5.04563     14.08967        -0.003062      0.000775     -0.009274
      7.56411      7.56788     14.09315        -0.002080     -0.000013     -0.005730
      1.26229      1.26004     15.90285         0.001278      0.001100      0.008723
      1.26772      3.78523     15.90541        -0.001379     -0.001442      0.005694
      1.26225      6.31024     15.90287         0.001306     -0.003198      0.008598
      1.26211      8.83076     15.90958        -0.001683     -0.001019      0.006934
      3.79426      1.27888     15.91617        -0.004178     -0.010850      0.010729
      3.78001      3.78549     15.87805         0.006671     -0.000651      0.004671
      3.79398      6.29234     15.91594        -0.002710      0.007705      0.010559
      3.78337      8.83119     15.90575         0.000480     -0.001214      0.007731
      6.29391      1.27545     15.91972         0.007261     -0.007107      0.011889
      6.28811      3.78531     15.90684         0.011779     -0.000732      0.011669
      6.29414      6.29530     15.91942         0.006168      0.004684      0.011856
      6.30510      8.83093     15.90752         0.001895     -0.000547      0.008575
      8.82890      1.25953     15.90315         0.001533      0.000160      0.007655
      8.82895      3.78484     15.89993        -0.002295     -0.000530      0.007915
      8.82900      6.31014     15.90311         0.001392     -0.001285      0.007634
      8.82809      8.83045     15.91117         0.000655     -0.000474      0.008309
     10.09078      0.00275     17.68696        -0.000742      0.002117     -0.008679
     10.09007      2.52462     17.68209         0.002830      0.002047     -0.015721
     10.09016      5.04498     17.68213         0.002606     -0.001839     -0.016047
     10.09072      7.56684     17.68704        -0.000678     -0.001392     -0.009255
      2.52430     10.09053     17.68542         0.000220     -0.000574     -0.010631
      2.50713      2.51290     17.67970        -0.009879     -0.004673     -0.009927
      2.50729      5.05755     17.67973        -0.010596      0.005143     -0.010054
      2.52426      7.57109     17.68544         0.000248      0.000873     -0.010433
      5.04404     10.08099     17.69127        -0.000969     -0.008437     -0.002661
      5.06146      2.47506     17.77433        -0.000525     -0.002087      0.000959
      5.06149      5.09801     17.77353        -0.000448     -0.002154      0.003067
      5.04398      7.58189     17.69122        -0.000892      0.010351     -0.003587
      7.56540      0.00085     17.68678        -0.001885      0.000003     -0.006845
      7.58163      2.52074     17.67367         0.007271     -0.002834     -0.004737
      7.58164      5.04894     17.67346         0.007645      0.003153     -0.004306
      7.56527      7.56875     17.68673        -0.001743      0.000484     -0.006277
      4.67884      3.78691     19.14286         0.018978      0.000602      0.012960
      4.66809      3.78769     20.35309        -0.015858     -0.001825      0.035816
 -----------------------------------------------------------------------------------
    total drift:                               -0.001167     -0.000505      0.042814


--------------------------------------------------------------------------------------------------------



  FREE ENERGIE OF THE ION-ELECTRON SYSTEM (eV)
  ---------------------------------------------------
  free  energy   TOTEN  =      -255.18265812 eV

  energy  without entropy=     -255.19302288  energy(sigma->0) =     -255.18611304
 


--------------------------------------------------------------------------------------------------------


    POTLOK:  cpu time    1.1460: real time    1.8960


--------------------------------------------------------------------------------------------------------


 NEB: the previous image is higher in energy: F
 NEB: the next image is higher in energy    : F
 NEB: image is at an extrema
 NEB: diff energy (min, max):     0.008039    0.022998

 NEB: Tangent
 ----------------------------------------------
     -0.00048     -0.00002     -0.00097
     -0.00052      0.00000     -0.00096
     -0.00047      0.00002     -0.00096
     -0.00045     -0.00000     -0.00100
     -0.00039     -0.00011     -0.00156
     -0.00042      0.00000     -0.00158
     -0.00039      0.00011     -0.00155
     -0.00035     -0.00000     -0.00146
      0.00007     -0.00006     -0.00137
      0.00005      0.00000     -0.00134
      0.00007      0.00006     -0.00136
      0.00008     -0.00000     -0.00135
     -0.00001      0.00002     -0.00083
     -0.00005      0.00000     -0.00077
     -0.00001     -0.00002     -0.00083
      0.00003      0.00000     -0.00089
      0.00120     -0.00176     -0.00467
     -0.00077     -0.00079     -0.00481
     -0.00079      0.00012     -0.00465
      0.00118      0.00114     -0.00479
      0.00228     -0.00007     -0.00172
      0.00403      0.00304      0.00501
      0.00400     -0.00385      0.00498
      0.00231     -0.00086     -0.00176
     -0.00063     -0.00111     -0.00182
     -0.00385      0.00083      0.00137
     -0.00379     -0.00186      0.00141
     -0.00060      0.00008     -0.00183
     -0.00301     -0.00066     -0.00185
     -0.00042     -0.00203     -0.00806
     -0.00043      0.00129     -0.00803
     -0.00304     -0.00015     -0.00180
     -0.00628     -0.00713     -0.01058
     -0.01282     -0.00098     -0.01467
     -0.00633      0.00547     -0.01068
     -0.00014     -0.00085     -0.00205
      0.00372     -0.00427      0.00250
      0.01561     -0.00109      0.03963
      0.00390      0.00191      0.00259
      0.00170     -0.00119      0.00054
     -0.00363      0.00326     -0.00267
      0.01183     -0.00112     -0.01766
     -0.00380     -0.00548     -0.00239
      0.00061     -0.00102     -0.00258
     -0.00176     -0.00391     -0.00765
     -0.00759     -0.00053     -0.00314
     -0.00179      0.00263     -0.00752
     -0.00052     -0.00064     -0.00415
     -0.00040      0.00002     -0.00283
     -0.00407     -0.00090     -0.00831
     -0.00406     -0.00016     -0.00820
     -0.00035     -0.00106     -0.00285
      0.00030      0.00019     -0.00153
     -0.01506      0.00007     -0.02974
     -0.01540     -0.00152     -0.03015
      0.00039     -0.00187     -0.00154
      0.00164     -0.00569      0.00281
     -0.03175     -0.01912      0.02044
     -0.03212      0.01622      0.02121
      0.00173      0.00332      0.00289
     -0.00043     -0.00188     -0.00378
      0.00297     -0.00907     -0.00826
      0.00278      0.00776     -0.00799
     -0.00040      0.00069     -0.00374
      0.70824     -0.00242      0.12327
      0.67811     -0.00339      0.11446

 NEB: forces: par spring, perp REAL, dneb     0.005998    0.081847    0.000000
 NEB: distance to prev, next image, angle between     0.450014    0.448815  166.931772
 NEB: projections on to tangent (spring, REAL)    -0.005998    0.009970

 stress matrix after NEB project (eV)
    -24.30673      0.00021      0.05635
      0.00021    -24.62992     -0.05325
      0.05635     -0.05325     -5.11064
  FORCES: max atom, RMS     0.044618    0.010149
  FORCE total and by dimension    0.082452    0.033534
  Stress total and by dimension   34.979720   24.629922
 Quasi-Newton relaxation of ions (Broydens 2nd method)
  g(Force)  = 0.760E-03   g(Stress)= 0.000E+00

 Reset! Starting new Quasi-Newton update for ions 


--------------------------------------------------------------------------------------------------------


  
 reached required accuracy - stopping structural energy minimisation
     LOOP+:  cpu time11029.1277: real time 5932.4326
    4ORBIT:  cpu time    0.0000: real time    0.0000
 


 total charge     
 
# of ion       s       p       d       tot
------------------------------------------
    1        0.452   0.277   9.208   9.938
    2        0.452   0.279   9.208   9.939
    3        0.452   0.277   9.208   9.938
    4        0.451   0.278   9.207   9.936
    5        0.453   0.277   9.207   9.938
    6        0.452   0.279   9.206   9.936
    7        0.453   0.277   9.207   9.938
    8        0.452   0.277   9.208   9.936
    9        0.452   0.277   9.208   9.937
   10        0.454   0.277   9.207   9.937
   11        0.452   0.277   9.208   9.937
   12        0.453   0.276   9.207   9.937
   13        0.452   0.277   9.208   9.937
   14        0.451   0.278   9.208   9.937
   15        0.452   0.277   9.208   9.937
   16        0.453   0.277   9.207   9.937
   17        0.454   0.400   9.177  10.031
   18        0.453   0.401   9.176  10.031
   19        0.453   0.401   9.176  10.031
   20        0.454   0.400   9.177  10.031
   21        0.452   0.400   9.177  10.029
   22        0.455   0.401   9.177  10.034
   23        0.455   0.401   9.177  10.034
   24        0.452   0.400   9.177  10.029
   25        0.453   0.399   9.177  10.030
   26        0.456   0.401   9.178  10.035
   27        0.456   0.401   9.178  10.035
   28        0.453   0.399   9.177  10.030
   29        0.453   0.399   9.177  10.028
   30        0.453   0.399   9.177  10.030
   31        0.453   0.399   9.177  10.030
   32        0.453   0.399   9.177  10.028
   33        0.453   0.401   9.177  10.031
   34        0.452   0.402   9.177  10.031
   35        0.453   0.401   9.177  10.031
   36        0.453   0.400   9.177  10.031
   37        0.451   0.401   9.175  10.028
   38        0.455   0.387   9.185  10.027
   39        0.452   0.401   9.175  10.028
   40        0.453   0.401   9.175  10.030
   41        0.453   0.403   9.174  10.030
   42        0.450   0.394   9.178  10.022
   43        0.453   0.403   9.174  10.030
   44        0.454   0.400   9.176  10.030
   45        0.454   0.400   9.177  10.032
   46        0.454   0.401   9.177  10.031
   47        0.454   0.400   9.177  10.032
   48        0.452   0.402   9.177  10.030
   49        0.451   0.275   9.209   9.936
   50        0.452   0.280   9.207   9.939
   51        0.452   0.280   9.207   9.939
   52        0.451   0.275   9.209   9.936
   53        0.452   0.277   9.209   9.938
   54        0.448   0.277   9.210   9.935
   55        0.448   0.277   9.210   9.935
   56        0.452   0.277   9.209   9.938
   57        0.452   0.284   9.208   9.944
   58        0.458   0.370   9.158   9.986
   59        0.458   0.370   9.158   9.986
   60        0.452   0.284   9.208   9.944
   61        0.451   0.276   9.209   9.936
   62        0.452   0.282   9.209   9.943
   63        0.452   0.282   9.209   9.943
   64        0.451   0.276   9.209   9.936
   65        1.301   2.363   0.000   3.664
   66        1.632   3.435   0.000   5.067
--------------------------------------------------
tot         31.907  27.676 588.225 647.807
 


 magnetization (x)
 
# of ion       s       p       d       tot
------------------------------------------
    1       -0.000  -0.000   0.000   0.000
    2       -0.000  -0.000   0.000   0.000
    3       -0.000  -0.000   0.000   0.000
    4       -0.000  -0.000   0.000   0.000
    5       -0.000  -0.000   0.000   0.000
    6       -0.000  -0.000   0.000   0.000
    7       -0.000  -0.000   0.000   0.000
    8       -0.000  -0.000   0.000   0.000
    9       -0.000  -0.000   0.000   0.000
   10       -0.000  -0.000   0.000   0.000
   11       -0.000  -0.000   0.000   0.000
   12       -0.000  -0.000   0.000   0.000
   13       -0.000  -0.000   0.000   0.000
   14       -0.000  -0.000   0.000   0.000
   15       -0.000  -0.000   0.000   0.000
   16       -0.000  -0.000   0.000   0.000
   17       -0.000  -0.000   0.000   0.000
   18       -0.000  -0.000   0.000   0.000
   19       -0.000  -0.000   0.000  -0.000
   20       -0.000  -0.000   0.000   0.000
   21       -0.000  -0.000   0.000   0.000
   22       -0.000  -0.000   0.000   0.000
   23       -0.000  -0.000   0.000   0.000
   24       -0.000  -0.000   0.000   0.000
   25       -0.000  -0.000   0.000   0.000
   26       -0.000  -0.000   0.000   0.000
   27       -0.000  -0.000   0.000   0.000
   28       -0.000  -0.000   0.000   0.000
   29       -0.000  -0.000   0.000   0.000
   30       -0.000  -0.000   0.000   0.000
   31       -0.000  -0.000   0.000   0.000
   32       -0.000  -0.000   0.000   0.000
   33        0.000   0.000  -0.000  -0.000
   34        0.000   0.000  -0.000   0.000
   35        0.000   0.000  -0.000  -0.000
   36        0.000   0.000  -0.000  -0.000
   37        0.000   0.000  -0.000   0.000
   38        0.000   0.000  -0.000   0.000
   39        0.000   0.000  -0.000   0.000
   40        0.000   0.000  -0.000   0.000
   41        0.000   0.000  -0.000   0.000
   42        0.000   0.000  -0.000   0.000
   43        0.000   0.000  -0.000   0.000
   44        0.000   0.000  -0.000   0.000
   45        0.000   0.000  -0.000   0.000
   46        0.000   0.000  -0.000   0.000
   47        0.000   0.000  -0.000   0.000
   48        0.000   0.000  -0.000  -0.000
   49        0.000   0.000  -0.000  -0.000
   50        0.000   0.000  -0.000  -0.000
   51        0.000   0.000  -0.000  -0.000
   52        0.000   0.000  -0.000  -0.000
   53        0.000   0.000  -0.000  -0.000
   54       -0.000   0.000  -0.000  -0.000
   55       -0.000   0.000  -0.000  -0.000
   56        0.000   0.000  -0.000  -0.000
   57        0.000   0.000  -0.000  -0.000
   58        0.000   0.000  -0.000  -0.000
   59        0.000   0.000  -0.000  -0.000
   60        0.000   0.000  -0.000  -0.000
   61        0.000   0.000  -0.000  -0.000
   62        0.000   0.000  -0.000  -0.000
   63        0.000   0.000  -0.000  -0.000
   64        0.000   0.000  -0.000  -0.000
   65        0.000   0.000   0.000   0.000
   66        0.000   0.000   0.000   0.000
--------------------------------------------------
tot          0.000   0.000   0.000   0.000
 

 total amount of memory used by VASP MPI-rank0   692163. kBytes
=======================================================================

   base      :      30000. kBytes
   nonlr-proj:      11903. kBytes
   fftplans  :      24435. kBytes
   grid      :      64794. kBytes
   one-center:        186. kBytes
   wavefun   :     560845. kBytes
 
  
  
 General timing and accounting informations for this job:
 ========================================================
  
                  Total CPU time used (sec):    11087.055
                            User time (sec):    10757.891
                          System time (sec):      329.164
                         Elapsed time (sec):     6242.923
  
                   Maximum memory used (kb):     1151608.
                   Average memory used (kb):           0.
  
                          Minor page faults:       823004
                          Major page faults:          542
                 Voluntary context switches:        69765
