 vasp.5.4.4.18Apr17-6-g9f103f2a35 (build Jun 11 2020 13:42:08) complex          
  
 executed on             LinuxIFC date 2022.01.22  06:36:48
 running on   48 total cores
 distrk:  each k-point on   48 cores,    1 groups
 distr:  one band on NCORES_PER_BAND=   1 cores,   48 groups


--------------------------------------------------------------------------------------------------------


 INCAR:
 POTCAR:    PAW_PBE Pd 04Jan2005                  
 POTCAR:    PAW_PBE N 08Apr2002                   
 POTCAR:    PAW_PBE O 08Apr2002                   

 ----------------------------------------------------------------------------- 
|                                                                             |
|           W    W    AA    RRRRR   N    N  II  N    N   GGGG   !!!           |
|           W    W   A  A   R    R  NN   N  II  NN   N  G    G  !!!           |
|           W    W  A    A  R    R  N N  N  II  N N  N  G       !!!           |
|           W WW W  AAAAAA  RRRRR   N  N N  II  N  N N  G  GGG   !            |
|           WW  WW  A    A  R   R   N   NN  II  N   NN  G    G                |
|           W    W  A    A  R    R  N    N  II  N    N   GGGG   !!!           |
|                                                                             |
|      For optimal performance we recommend to set                            |
|        NCORE= 4 - approx SQRT( number of cores)                             |
|      NCORE specifies how many cores store one orbital (NPAR=cpu/NCORE).     |
|      This setting can  greatly improve the performance of VASP for DFT.     |
|      The default,   NCORE=1            might be grossly inefficient         |
|      on modern multi-core architectures or massively parallel machines.     |
|      Do your own testing !!!!                                               |
|      Unfortunately you need to use the default for GW and RPA calculations. |
|      (for HF NCORE is supported but not extensively tested yet)             |
|                                                                             |
 ----------------------------------------------------------------------------- 

 POTCAR:    PAW_PBE Pd 04Jan2005                  
   VRHFIN =Pd : s1 d9                                                           
   LEXCH  = PE                                                                  
   EATOM  =   809.7530 eV,   59.5152 Ry                                         
                                                                                
   TITEL  = PAW_PBE Pd 04Jan2005                                                
   LULTRA =        F    use ultrasoft PP ?                                      
   IUNSCR =        1    unscreen: 0-lin 1-nonlin 2-no                           
   RPACOR =    2.000    partial core radius                                     
   POMASS =  106.420; ZVAL   =   10.000    mass and valenz                      
   RCORE  =    2.600    outmost cutoff radius                                   
   RWIGS  =    2.710; RWIGS  =    1.434    wigner-seitz radius (au A)           
   ENMAX  =  250.925; ENMIN  =  188.194 eV                                      
   ICORE  =        3    local potential                                         
   LCOR   =        T    correct aug charges                                     
   LPAW   =        T    paw PP                                                  
   EAUG   =  416.230                                                            
   DEXC   =    0.000                                                            
   RMAX   =    2.653    core radius for proj-oper                               
   RAUG   =    1.300    factor for augmentation sphere                          
   RDEP   =    2.734    radius for radial grids                                 
   RDEPT  =    2.103    core radius for aug-charge                              
                                                                                
   Atomic configuration                                                         
   12 entries                                                                   
     n  l   j            E        occ.                                          
     1  0  0.50    -24164.6631   2.0000                                         
     2  0  0.50     -3530.9218   2.0000                                         
     2  1  1.50     -3165.6822   6.0000                                         
     3  0  0.50      -639.4577   2.0000                                         
     3  1  1.50      -519.4532   6.0000                                         
     3  2  2.50      -328.9757  10.0000                                         
     4  0  0.50       -88.7014   2.0000                                         
     4  1  1.50       -54.4540   6.0000                                         
     4  2  2.50        -6.6878   9.0000                                         
     5  0  0.50        -4.3543   1.0000                                         
     5  1  0.50        -1.3606   0.0000                                         
     4  3  2.50        -1.3606   0.0000                                         
   Description                                                                  
     l       E           TYP  RCUT    TYP  RCUT                                 
     2     -6.6878251     23  2.400                                             
     2     -8.0484077     23  2.400                                             
     0     -4.3542939     23  2.400                                             
     0      4.3406793     23  2.400                                             
     1     -4.0817478     23  2.600                                             
     1     15.8380318     23  2.600                                             
     3     -4.0817478     23  2.400                                             
  local pseudopotential read in
  partial core-charges read in
  partial kinetic energy density read in
  atomic valenz-charges read in
  non local Contribution for L=           2  read in
    real space projection operators read in
  non local Contribution for L=           2  read in
    real space projection operators read in
  non local Contribution for L=           0  read in
    real space projection operators read in
  non local Contribution for L=           0  read in
    real space projection operators read in
  non local Contribution for L=           1  read in
    real space projection operators read in
  non local Contribution for L=           1  read in
    real space projection operators read in
    PAW grid and wavefunctions read in
 
   number of l-projection  operators is LMAX  =           6
   number of lm-projection operators is LMMAX =          18
 
 POTCAR:    PAW_PBE N 08Apr2002                   
   VRHFIN =N: s2p3                                                              
   LEXCH  = PE                                                                  
   EATOM  =   264.5486 eV,   19.4438 Ry                                         
                                                                                
   TITEL  = PAW_PBE N 08Apr2002                                                 
   LULTRA =        F    use ultrasoft PP ?                                      
   IUNSCR =        1    unscreen: 0-lin 1-nonlin 2-no                           
   RPACOR =    1.200    partial core radius                                     
   POMASS =   14.001; ZVAL   =    5.000    mass and valenz                      
   RCORE  =    1.500    outmost cutoff radius                                   
   RWIGS  =    1.400; RWIGS  =    0.741    wigner-seitz radius (au A)           
   ENMAX  =  400.000; ENMIN  =  300.000 eV                                      
   ICORE  =        2    local potential                                         
   LCOR   =        T    correct aug charges                                     
   LPAW   =        T    paw PP                                                  
   EAUG   =  627.112                                                            
   DEXC   =    0.000                                                            
   RMAX   =    1.529    core radius for proj-oper                               
   RAUG   =    1.300    factor for augmentation sphere                          
   RDEP   =    1.514    radius for radial grids                                 
   RDEPT  =    1.338    core radius for aug-charge                              
                                                                                
   Atomic configuration                                                         
    4 entries                                                                   
     n  l   j            E        occ.                                          
     1  0  0.50      -384.7179   2.0000                                         
     2  0  0.50       -18.5828   2.0000                                         
     2  1  0.50        -7.0898   3.0000                                         
     3  2  1.50        -6.8029   0.0000                                         
   Description                                                                  
     l       E           TYP  RCUT    TYP  RCUT                                 
     0    -18.5828119     23  1.200                                             
     0    -13.5018863     23  1.200                                             
     1     -7.0897853     23  1.500                                             
     1      9.5240782     23  1.500                                             
     2     -6.8029130      7  1.500                                             
  local pseudopotential read in
  partial core-charges read in
  partial kinetic energy density read in
  atomic valenz-charges read in
  non local Contribution for L=           0  read in
    real space projection operators read in
  non local Contribution for L=           0  read in
    real space projection operators read in
  non local Contribution for L=           1  read in
    real space projection operators read in
  non local Contribution for L=           1  read in
    real space projection operators read in
    PAW grid and wavefunctions read in
 
   number of l-projection  operators is LMAX  =           4
   number of lm-projection operators is LMMAX =           8
 
 POTCAR:    PAW_PBE O 08Apr2002                   
   VRHFIN =O: s2p4                                                              
   LEXCH  = PE                                                                  
   EATOM  =   432.3788 eV,   31.7789 Ry                                         
                                                                                
   TITEL  = PAW_PBE O 08Apr2002                                                 
   LULTRA =        F    use ultrasoft PP ?                                      
   IUNSCR =        1    unscreen: 0-lin 1-nonlin 2-no                           
   RPACOR =    1.200    partial core radius                                     
   POMASS =   16.000; ZVAL   =    6.000    mass and valenz                      
   RCORE  =    1.520    outmost cutoff radius                                   
   RWIGS  =    1.550; RWIGS  =    0.820    wigner-seitz radius (au A)           
   ENMAX  =  400.000; ENMIN  =  300.000 eV                                      
   ICORE  =        2    local potential                                         
   LCOR   =        T    correct aug charges                                     
   LPAW   =        T    paw PP                                                  
   EAUG   =  605.392                                                            
   DEXC   =    0.000                                                            
   RMAX   =    1.553    core radius for proj-oper                               
   RAUG   =    1.300    factor for augmentation sphere                          
   RDEP   =    1.550    radius for radial grids                                 
   RDEPT  =    1.329    core radius for aug-charge                              
                                                                                
   Atomic configuration                                                         
    4 entries                                                                   
     n  l   j            E        occ.                                          
     1  0  0.50      -514.6923   2.0000                                         
     2  0  0.50       -23.9615   2.0000                                         
     2  1  0.50        -9.0305   4.0000                                         
     3  2  1.50        -9.5241   0.0000                                         
   Description                                                                  
     l       E           TYP  RCUT    TYP  RCUT                                 
     0    -23.9615318     23  1.200                                             
     0     -9.5240782     23  1.200                                             
     1     -9.0304911     23  1.520                                             
     1      8.1634956     23  1.520                                             
     2     -9.5240782      7  1.500                                             
  local pseudopotential read in
  partial core-charges read in
  partial kinetic energy density read in
  kinetic energy density of atom read in
  atomic valenz-charges read in
  non local Contribution for L=           0  read in
    real space projection operators read in
  non local Contribution for L=           0  read in
    real space projection operators read in
  non local Contribution for L=           1  read in
    real space projection operators read in
  non local Contribution for L=           1  read in
    real space projection operators read in
    PAW grid and wavefunctions read in
 
   number of l-projection  operators is LMAX  =           4
   number of lm-projection operators is LMMAX =           8
 
 Optimization of the real space projectors (new method)

 maximal supplied QI-value         = 14.36
 optimisation between [QCUT,QGAM] = [ 10.20, 20.39] = [ 29.12,116.47] Ry 
 Optimized for a Real-space Cutoff    1.55 Angstroem

   l    n(q)    QCUT    max X(q) W(low)/X(q) W(high)/X(q)  e(spline) 
   2      9    10.197    59.108    0.12E-03    0.40E-04    0.11E-06
   2      9    10.197    58.101    0.12E-03    0.39E-04    0.12E-06
   0      9    10.197   102.235    0.41E-04    0.86E-05    0.83E-07
   0      9    10.197    58.388    0.37E-04    0.79E-05    0.78E-07
   1      9    10.197    22.191    0.25E-03    0.13E-03    0.84E-07
   1      9    10.197    15.590    0.21E-03    0.11E-03    0.74E-07
 Optimization of the real space projectors (new method)

 maximal supplied QI-value         = 25.13
 optimisation between [QCUT,QGAM] = [ 10.05, 20.36] = [ 28.30,116.06] Ry 
 Optimized for a Real-space Cutoff    1.70 Angstroem

   l    n(q)    QCUT    max X(q) W(low)/X(q) W(high)/X(q)  e(spline) 
   0     10    10.053    79.467    0.61E-04    0.98E-04    0.61E-06
   0     10    10.053    66.151    0.60E-04    0.98E-04    0.61E-06
   1     10    10.053     8.350    0.17E-03    0.71E-03    0.45E-05
   1     10    10.053     5.531    0.18E-03    0.77E-03    0.49E-05
 Optimization of the real space projectors (new method)

 maximal supplied QI-value         = 24.76
 optimisation between [QCUT,QGAM] = [ 10.15, 20.30] = [ 28.85,115.39] Ry 
 Optimized for a Real-space Cutoff    1.51 Angstroem

   l    n(q)    QCUT    max X(q) W(low)/X(q) W(high)/X(q)  e(spline) 
   0      9    10.150    20.381    0.17E-03    0.18E-03    0.41E-06
   0      9    10.150    15.268    0.18E-03    0.20E-03    0.43E-06
   1      9    10.150     5.964    0.16E-03    0.20E-03    0.36E-06
   1      9    10.150     5.382    0.13E-03    0.16E-03    0.33E-06
  PAW_PBE Pd 04Jan2005                  :
 energy of atom  1       EATOM= -809.7530
 kinetic energy error for atom=    0.0091 (will be added to EATOM!!)
  PAW_PBE N 08Apr2002                   :
 energy of atom  2       EATOM= -264.5486
 kinetic energy error for atom=    0.0736 (will be added to EATOM!!)
  PAW_PBE O 08Apr2002                   :
 energy of atom  3       EATOM= -432.3788
 kinetic energy error for atom=    0.1156 (will be added to EATOM!!)
 
 
 POSCAR: Pd N O                                  
  positions in direct lattice
  No initial velocities read in
 exchange correlation table for  LEXCH =        8
   RHO(1)=    0.500       N(1)  =     2000
   RHO(2)=  100.500       N(2)  =     4000

 VTST: version 3.1, (03/28/14)

 CHAIN: initializing optimizer
 
 OPT: Using VASP Dynamics algorithm
 CHAIN: Read ICHAIN            0
 
 POSCAR: Pd N O                                  
  positions in direct lattice
  No initial velocities read in
 


--------------------------------------------------------------------------------------------------------


 ion  position               nearest neighbor table
   1  0.125  0.125  0.403-   4 2.75  13 2.75   2 2.75   5 2.75  17 2.75  21 2.75  22 2.76  18 2.76

   2  0.125  0.375  0.403-  14 2.75   1 2.75   3 2.75   6 2.75  23 2.75  18 2.75  22 2.76  19 2.76

   3  0.125  0.625  0.403-  24 2.74  15 2.75   4 2.75   2 2.75   7 2.75  20 2.76  23 2.76  19 2.76

   4  0.125  0.875  0.403-   1 2.75  16 2.75   3 2.75   8 2.75  21 2.75  20 2.76  24 2.76  17 2.77

   5  0.375  0.125  0.403-   8 2.75   6 2.75   9 2.75   1 2.75  26 2.75  25 2.75  21 2.76  22 2.76

   6  0.375  0.375  0.403-   5 2.75  10 2.75   7 2.75   2 2.75  27 2.75  26 2.75  23 2.76  22 2.76

   7  0.375  0.625  0.403-  28 2.74   8 2.75  11 2.75   6 2.75   3 2.75  27 2.75  24 2.75  23 2.77

   8  0.375  0.875  0.403-   5 2.75   7 2.75  12 2.75   4 2.75  25 2.75  28 2.75  21 2.75  24 2.77

   9  0.625  0.125  0.403-  13 2.74  12 2.75  10 2.75   5 2.75  26 2.75  29 2.75  25 2.75  30 2.76

  10  0.625  0.375  0.403-  14 2.74   9 2.75   6 2.75  11 2.75  26 2.75  31 2.76  30 2.76  27 2.76

  11  0.625  0.625  0.403-  15 2.74  12 2.75  32 2.75   7 2.75  10 2.75  31 2.75  28 2.75  27 2.76

  12  0.625  0.875  0.403-  32 2.74  16 2.74  25 2.75   9 2.75  11 2.75   8 2.75  29 2.76  28 2.76

  13  0.875  0.125  0.403-  29 2.74   9 2.74  30 2.75  16 2.75   1 2.75  14 2.75  17 2.75  18 2.77

  14  0.875  0.375  0.403-  30 2.74  10 2.74   2 2.75  13 2.75  15 2.75  31 2.75  19 2.76  18 2.76

  15  0.875  0.625  0.403-  11 2.74   3 2.75  16 2.75  14 2.75  31 2.75  32 2.75  20 2.75  19 2.76

  16  0.875  0.875  0.403-  12 2.74  32 2.74  13 2.75   4 2.75  15 2.75  29 2.75  20 2.75  17 2.77

  17  0.000  0.001  0.468-  18 2.74  21 2.74  29 2.74  36 2.74  48 2.74   1 2.75  13 2.75  45 2.75
                            20 2.76   4 2.77  16 2.77  33 2.78
  18  0.001  0.251  0.468-  22 2.73  19 2.74  17 2.74  30 2.74  46 2.75  45 2.75   2 2.75   1 2.76
                            14 2.76  33 2.76  13 2.77  34 2.78
  19  0.000  0.500  0.468-  23 2.73  18 2.74  46 2.74  31 2.75  35 2.75  20 2.75  47 2.76   2 2.76
                             3 2.76  14 2.76  15 2.76  34 2.79
  20  0.999  0.750  0.468-  36 2.74  32 2.75  24 2.75  47 2.75  19 2.75  16 2.75  48 2.75  15 2.75
                             4 2.76  17 2.76   3 2.76  35 2.77
  21  0.250  1.000  0.468-  37 2.74  17 2.74  36 2.75   4 2.75  22 2.75  25 2.75  40 2.75   1 2.75
                             8 2.75   5 2.76  24 2.76  33 2.78
  22  0.250  0.250  0.468-  18 2.73  23 2.73  37 2.74  38 2.75  26 2.75  21 2.75  33 2.76   2 2.76
                             1 2.76   6 2.76   5 2.76  34 2.78
  23  0.249  0.499  0.468-  19 2.73  22 2.73  39 2.74  24 2.74  27 2.74   2 2.75  38 2.76   6 2.76
                             3 2.76  34 2.76  35 2.77   7 2.77
  24  0.249  0.748  0.468-  40 2.74  23 2.74  28 2.74   3 2.74  20 2.75  36 2.75   7 2.75  21 2.76
                            39 2.76   4 2.76   8 2.77  35 2.77
  25  0.500  0.999  0.468-  44 2.74  37 2.74  28 2.74  12 2.75  41 2.75   8 2.75  26 2.75  29 2.75
                            21 2.75   9 2.75  40 2.75   5 2.75
  26  0.500  0.250  0.468-  42 2.74   9 2.75  41 2.75  37 2.75  25 2.75   5 2.75  27 2.75  22 2.75
                            10 2.75   6 2.75  30 2.76  38 2.77
  27  0.499  0.500  0.468-  43 2.74  28 2.74  42 2.74  23 2.74   6 2.75   7 2.75  26 2.75  11 2.76
                            10 2.76  31 2.76  38 2.76  39 2.76
  28  0.499  0.749  0.468-  43 2.73  40 2.73  27 2.74   7 2.74  24 2.74  25 2.74  32 2.75   8 2.75
                            44 2.75  11 2.75  12 2.76  39 2.80
  29  0.751  0.001  0.468-  41 2.73  17 2.74  30 2.74  13 2.74  32 2.74  48 2.74  16 2.75  44 2.75
                             9 2.75  25 2.75  12 2.76  45 2.80
  30  0.751  0.250  0.468-  41 2.74  29 2.74  42 2.74  18 2.74  14 2.74  13 2.75  31 2.75  46 2.75
                            10 2.76  26 2.76   9 2.76  45 2.77
  31  0.750  0.501  0.468-  42 2.74  19 2.75  32 2.75  15 2.75  43 2.75  11 2.75  30 2.75  14 2.75
                            47 2.75  46 2.76  10 2.76  27 2.76
  32  0.749  0.751  0.468-  12 2.74  44 2.74  29 2.74  16 2.74  20 2.75  11 2.75  31 2.75  28 2.75
                            15 2.75  43 2.75  47 2.76  48 2.77
  33  0.126  0.127  0.534-  45 2.72  34 2.73  37 2.74  49 2.74  54 2.75  22 2.76  36 2.76  18 2.76
                            53 2.77  17 2.78  21 2.78  50 2.81
  34  0.126  0.375  0.535-  38 2.72  35 2.73  33 2.73  46 2.75  23 2.76  22 2.78  18 2.78  19 2.79
                            50 2.80  55 2.82  51 2.86  54 2.89
  35  0.124  0.624  0.534-  39 2.72  34 2.73  47 2.74  19 2.75  56 2.75  36 2.76  51 2.76  23 2.77
                            24 2.77  52 2.77  20 2.77  55 2.86
  36  0.125  0.875  0.533-  53 2.73  48 2.74  20 2.74  17 2.74  21 2.75  24 2.75  40 2.75  52 2.75
                            35 2.76  33 2.76  56 2.77  49 2.78
  37  0.375  0.124  0.532-  54 2.69  33 2.74  21 2.74  25 2.74  22 2.74  38 2.75  26 2.75  40 2.76
                            57 2.76  41 2.76  58 2.77  53 2.79
  38  0.375  0.374  0.533-  39 2.72  34 2.72  59 2.74  37 2.75  22 2.75  42 2.75  23 2.76  58 2.76
                            27 2.76  26 2.77  54 2.80  55 2.85
  39  0.371  0.622  0.534-  38 2.72  35 2.72  59 2.74  56 2.74  23 2.74  40 2.76  24 2.76  60 2.76
                            27 2.76  43 2.76  28 2.80  55 2.81
  40  0.375  0.873  0.532-  53 2.73  28 2.73  24 2.74  44 2.75  60 2.75  36 2.75  21 2.75  25 2.75
                            37 2.76  39 2.76  57 2.76  56 2.77
  41  0.627  0.124  0.532-  58 2.73  29 2.73  30 2.74  44 2.74  25 2.75  26 2.75  42 2.75  61 2.76
                            37 2.76  45 2.76  62 2.77  57 2.77
  42  0.625  0.375  0.532-  58 2.73  31 2.74  63 2.74  26 2.74  30 2.74  27 2.74  43 2.75  46 2.75
                            41 2.75  38 2.75  62 2.76  59 2.76
  43  0.623  0.625  0.532-  28 2.73  63 2.74  27 2.74  44 2.74  31 2.75  42 2.75  60 2.75  32 2.75
                            47 2.76  39 2.76  59 2.76  64 2.77
  44  0.625  0.875  0.532-  32 2.74  43 2.74  25 2.74  64 2.74  41 2.74  57 2.74  48 2.74  40 2.75
                            29 2.75  28 2.75  61 2.77  60 2.77
  45  0.878  0.127  0.534-  33 2.72  46 2.73  62 2.73  49 2.74  18 2.75  17 2.75  48 2.76  61 2.76
                            41 2.76  30 2.77  29 2.80  50 2.82
  46  0.876  0.376  0.533-  45 2.73  19 2.74  18 2.75  62 2.75  47 2.75  42 2.75  30 2.75  34 2.75
                            31 2.76  63 2.77  51 2.80  50 2.86
  47  0.874  0.626  0.533-  51 2.72  35 2.74  20 2.75  46 2.75  48 2.75  31 2.75  19 2.76  64 2.76
                            43 2.76  63 2.76  32 2.76  52 2.77
  48  0.875  0.877  0.533-  36 2.74  17 2.74  29 2.74  44 2.74  52 2.74  61 2.75  47 2.75  20 2.75
                            45 2.76  64 2.76  32 2.77  49 2.77
  49  0.001  0.002  0.599-  52 2.72  50 2.74  45 2.74  33 2.74  53 2.75  61 2.75  48 2.77  36 2.78

  50  0.003  0.251  0.603-  66 1.89  49 2.74  62 2.78  34 2.80  33 2.81  45 2.82  51 2.84  54 2.84
                            46 2.86
  51  0.992  0.509  0.600-  66 1.87  52 2.69  63 2.72  47 2.72  35 2.76  46 2.80  55 2.84  50 2.84
                            34 2.86
  52  0.999  0.754  0.598-  51 2.69  49 2.72  48 2.74  64 2.75  56 2.75  36 2.75  47 2.77  35 2.77

  53  0.251  0.993  0.598-  54 2.67  56 2.69  40 2.73  36 2.73  57 2.74  49 2.75  33 2.77  37 2.79

  54  0.261  0.236  0.600-  67 2.16  53 2.67  58 2.69  37 2.69  33 2.75  38 2.80  50 2.84  55 2.89
                            34 2.89
  55  0.251  0.499  0.603-  65 2.01  59 2.74  56 2.74  39 2.81  34 2.82  51 2.84  38 2.85  35 2.86
                            54 2.89
  56  0.249  0.749  0.598-  53 2.69  39 2.74  55 2.74  60 2.75  35 2.75  52 2.75  40 2.77  36 2.77

  57  0.501  0.999  0.597-  61 2.73  60 2.74  44 2.74  53 2.74  58 2.75  37 2.76  40 2.76  41 2.77

  58  0.505  0.248  0.597-  54 2.69  62 2.69  41 2.73  42 2.73  57 2.75  59 2.75  38 2.76  37 2.77

  59  0.500  0.499  0.598-  63 2.70  55 2.74  39 2.74  38 2.74  58 2.75  60 2.75  42 2.76  43 2.76

  60  0.499  0.749  0.598-  64 2.73  57 2.74  56 2.75  40 2.75  43 2.75  59 2.75  39 2.76  44 2.77

  61  0.750  0.000  0.598-  64 2.73  57 2.73  48 2.75  62 2.75  49 2.75  41 2.76  45 2.76  44 2.77

  62  0.751  0.251  0.598-  58 2.69  45 2.73  46 2.75  63 2.75  61 2.75  42 2.76  41 2.77  50 2.78

  63  0.745  0.501  0.597-  59 2.70  51 2.72  43 2.74  42 2.74  64 2.75  62 2.75  47 2.76  46 2.77

  64  0.748  0.752  0.598-  61 2.73  60 2.73  44 2.74  63 2.75  52 2.75  47 2.76  48 2.76  43 2.77

  65  0.197  0.414  0.659-  67 1.23  55 2.01
  66  0.030  0.385  0.641-  51 1.87  50 1.89
  67  0.244  0.314  0.666-  65 1.23  54 2.16
 
  LATTYP: Found a simple tetragonal cell.
 ALAT       =    10.9820000000
 C/A-ratio  =     2.7317428519
  
  Lattice vectors:
  
 A1 = (  10.9820000000,   0.0000000000,   0.0000000000)
 A2 = (   0.0000000000,  10.9820000000,   0.0000000000)
 A3 = (   0.0000000000,   0.0000000000,  30.0000000000)


Analysis of symmetry for initial positions (statically):
=====================================================================
 Subroutine PRICEL returns:
 Original cell was already a primitive cell.
 

 Routine SETGRP: Setting up the symmetry group for a 
 simple tetragonal supercell.


 Subroutine GETGRP returns: Found  1 space group operations
 (whereof  1 operations were pure point group operations)
 out of a pool of 16 trial point group operations.


The static configuration has the point symmetry C_1 .


Analysis of symmetry for dynamics (positions and initial velocities):
=====================================================================
 Subroutine PRICEL returns:
 Original cell was already a primitive cell.
 

 Routine SETGRP: Setting up the symmetry group for a 
 simple tetragonal supercell.


 Subroutine GETGRP returns: Found  1 space group operations
 (whereof  1 operations were pure point group operations)
 out of a pool of 16 trial point group operations.


The dynamic configuration has the point symmetry C_1 .


Analysis of constrained symmetry for selective dynamics:
=====================================================================
 Subroutine PRICEL returns:
 Original cell was already a primitive cell.
 

 Routine SETGRP: Setting up the symmetry group for a 
 simple tetragonal supercell.


 Subroutine GETGRP returns: Found  1 space group operations
 (whereof  1 operations were pure point group operations)
 out of a pool of 16 trial point group operations.


The constrained configuration has the point symmetry C_1 .


Analysis of structural, dynamic, and magnetic symmetry:
=====================================================================
 Subroutine PRICEL returns:
 Original cell was already a primitive cell.
 

 Routine SETGRP: Setting up the symmetry group for a 
 simple tetragonal supercell.


 Subroutine GETGRP returns: Found  1 space group operations
 (whereof  1 operations were pure point group operations)
 out of a pool of 16 trial point group operations.


The magnetic configuration has the point symmetry C_1 .


 Subroutine INISYM returns: Found  1 space group operations
 (whereof  1 operations are pure point group operations),
 and found     1 'primitive' translations

 
 
 KPOINTS: K-Point Grid                            

Automatic generation of k-mesh.
Space group operators:
 irot       det(A)        alpha          n_x          n_y          n_z        tau_x        tau_y        tau_z
    1     1.000000     0.000001     1.000000     0.000000     0.000000     0.000000     0.000000     0.000000
 
 Subroutine IBZKPT returns following result:
 ===========================================
 
 Found     10 irreducible k-points:
 
 Following reciprocal coordinates:
            Coordinates               Weight
  0.000000  0.000000  0.000000      1.000000
  0.250000  0.000000  0.000000      2.000000
  0.500000  0.000000  0.000000      1.000000
  0.000000  0.250000  0.000000      2.000000
  0.250000  0.250000  0.000000      2.000000
  0.500000  0.250000  0.000000      2.000000
 -0.250000  0.250000  0.000000      2.000000
  0.000000  0.500000  0.000000      1.000000
  0.250000  0.500000  0.000000      2.000000
  0.500000  0.500000  0.000000      1.000000
 
 Following cartesian coordinates:
            Coordinates               Weight
  0.000000  0.000000  0.000000      1.000000
  0.022765  0.000000  0.000000      2.000000
  0.045529  0.000000  0.000000      1.000000
  0.000000  0.022765  0.000000      2.000000
  0.022765  0.022765  0.000000      2.000000
  0.045529  0.022765  0.000000      2.000000
 -0.022765  0.022765  0.000000      2.000000
  0.000000  0.045529  0.000000      1.000000
  0.022765  0.045529  0.000000      2.000000
  0.045529  0.045529  0.000000      1.000000
 
 
 Subroutine IBZKPT_HF returns following result:
 ==============================================
 
 Found     16 k-points in 1st BZ
 the following     16 k-points will be used (e.g. in the exchange kernel)
 Following reciprocal coordinates:   # in IRBZ
  0.000000  0.000000  0.000000    0.06250000   1 t-inv F
  0.250000  0.000000  0.000000    0.06250000   2 t-inv F
  0.500000  0.000000  0.000000    0.06250000   3 t-inv F
  0.000000  0.250000  0.000000    0.06250000   4 t-inv F
  0.250000  0.250000  0.000000    0.06250000   5 t-inv F
  0.500000  0.250000  0.000000    0.06250000   6 t-inv F
 -0.250000  0.250000  0.000000    0.06250000   7 t-inv F
  0.000000  0.500000  0.000000    0.06250000   8 t-inv F
  0.250000  0.500000  0.000000    0.06250000   9 t-inv F
  0.500000  0.500000  0.000000    0.06250000  10 t-inv F
 -0.250000  0.000000  0.000000    0.06250000   2 t-inv T
  0.000000 -0.250000  0.000000    0.06250000   4 t-inv T
 -0.250000 -0.250000  0.000000    0.06250000   5 t-inv T
 -0.500000 -0.250000  0.000000    0.06250000   6 t-inv T
  0.250000 -0.250000  0.000000    0.06250000   7 t-inv T
 -0.250000 -0.500000  0.000000    0.06250000   9 t-inv T


--------------------------------------------------------------------------------------------------------




 Dimension of arrays:
   k-points           NKPTS =     10   k-points in BZ     NKDIM =     10   number of bands    NBANDS=    432
   number of dos      NEDOS =   1200   number of ions     NIONS =     67
   non local maximal  LDIM  =      6   non local SUM 2l+1 LMDIM =     18
   total plane-waves  NPLWV = ******
   max r-space proj   IRMAX =   5807   max aug-charges    IRDMAX=  13820
   dimension x,y,z NGX =    72 NGY =   72 NGZ =  196
   dimension x,y,z NGXF=   144 NGYF=  144 NGZF=  392
   support grid    NGXF=   144 NGYF=  144 NGZF=  392
   ions per type =              64   2   1
   NGX,Y,Z   is equivalent  to a cutoff of  10.90, 10.90, 10.86 a.u.
   NGXF,Y,Z  is equivalent  to a cutoff of  21.80, 21.80, 21.72 a.u.

 SYSTEM =  Pd_100_surface                          
 POSCAR =  Pd N O                                  

 Startparameter for this run:
   NWRITE =      2    write-flag & timer
   PREC   = accura    normal or accurate (medium, high low for compatibility)
   ISTART =      0    job   : 0-new  1-cont  2-samecut
   ICHARG =      2    charge: 1-file 2-atom 10-const
   ISPIN  =      2    spin polarized calculation?
   LNONCOLLINEAR =      F non collinear calculations
   LSORBIT =      F    spin-orbit coupling
   INIWAV =      1    electr: 0-lowe 1-rand  2-diag
   LASPH  =      F    aspherical Exc in radial PAW
   METAGGA=      F    non-selfconsistent MetaGGA calc.

 Electronic Relaxation 1
   ENCUT  =  400.0 eV  29.40 Ry    5.42 a.u.  17.91 17.91 48.92*2*pi/ulx,y,z
   ENINI  =  400.0     initial cutoff
   ENAUG  =  627.1 eV  augmentation charge cutoff
   NELM   =    100;   NELMIN=  2; NELMDL= -5     # of ELM steps 
   EDIFF  = 0.1E-04   stopping-criterion for ELM
   LREAL  =      T    real-space projection
   NLSPLINE    = F    spline interpolate recip. space projectors
   LCOMPAT=      F    compatible to vasp.4.4
   GGA_COMPAT  = T    GGA compatible to vasp.4.4-vasp.4.6
   LMAXPAW     = -100 max onsite density
   LMAXMIX     =    2 max onsite mixed and CHGCAR
   VOSKOWN=      0    Vosko Wilk Nusair interpolation
   ROPT   =   -0.00025  -0.00025  -0.00025
 Ionic relaxation
   EDIFFG = -.2E-01   stopping-criterion for IOM
   NSW    =    841    number of steps for IOM
   NBLOCK =      1;   KBLOCK =    841    inner block; outer block 
   IBRION =      5    ionic relax: 0-MD 1-quasi-New 2-CG
   NFREE  =      2    steps in history (QN), initial steepest desc. (CG)
   ISIF   =      2    stress and relaxation
   IWAVPR =     11    prediction:  0-non 1-charg 2-wave 3-comb
   ISYM   =      2    0-nonsym 1-usesym 2-fastsym
   LCORR  =      T    Harris-Foulkes like correction to forces

   POTIM  = 0.0200    time-step for ionic-motion
   TEIN   =    0.0    initial temperature
   TEBEG  =    0.0;   TEEND  =   0.0 temperature during run
   SMASS  =  -3.00    Nose mass-parameter (am)
   estimated Nose-frequenzy (Omega)   =  0.10E-29 period in steps =****** mass=  -0.276E-26a.u.
   SCALEE = 1.0000    scale energy and forces
   NPACO  =    256;   APACO  = 16.0  distance and # of slots for P.C.
   PSTRESS=    0.0 pullay stress

  Mass of Ions in am
   POMASS = 106.42 14.00 16.00
  Ionic Valenz
   ZVAL   =  10.00  5.00  6.00
  Atomic Wigner-Seitz radii
   RWIGS  =  -1.00 -1.00 -1.00
  virtual crystal weights 
   VCA    =   1.00  1.00  1.00
   NELECT =     656.0000    total number of electrons
   NUPDOWN=      -1.0000    fix difference up-down

 DOS related values:
   EMIN   =  10.00;   EMAX   =-10.00  energy-range for DOS
   EFERMI =   0.00
   ISMEAR =     1;   SIGMA  =   0.20  broadening in eV -4-tet -1-fermi 0-gaus

 Electronic relaxation 2 (details)
   IALGO  =     68    algorithm
   LDIAG  =      T    sub-space diagonalisation (order eigenvalues)
   LSUBROT=      F    optimize rotation matrix (better conditioning)
   TURBO    =      0    0=normal 1=particle mesh
   IRESTART =      0    0=no restart 2=restart with 2 vectors
   NREBOOT  =      0    no. of reboots
   NMIN     =      0    reboot dimension
   EREF     =   0.00    reference energy to select bands
   IMIX   =      4    mixing-type and parameters
     AMIX     =   0.40;   BMIX     =  1.00
     AMIX_MAG =   1.60;   BMIX_MAG =  1.00
     AMIN     =   0.10
     WC   =   100.;   INIMIX=   1;  MIXPRE=   1;  MAXMIX= -45

 Intra band minimization:
   WEIMIN = 0.0010     energy-eigenvalue tresh-hold
   EBREAK =  0.58E-08  absolut break condition
   DEPER  =   0.30     relativ break condition  

   TIME   =   0.40     timestep for ELM

  volume/ion in A,a.u.               =      54.00       364.42
  Fermi-wavevector in a.u.,A,eV,Ry     =   0.926577  1.750976 11.681207  0.858544
  Thomas-Fermi vector in A             =   2.052554
 
 Write flags
   LWAVE        =      F    write WAVECAR
   LDOWNSAMPLE  =      F    k-point downsampling of WAVECAR
   LCHARG       =      F    write CHGCAR
   LVTOT        =      F    write LOCPOT, total local potential
   LVHAR        =      F    write LOCPOT, Hartree potential only
   LELF         =      F    write electronic localiz. function (ELF)
   LORBIT       =     11    0 simple, 1 ext, 2 COOP (PROOUT), +10 PAW based schemes


 Dipole corrections
   LMONO  =      F    monopole corrections only (constant potential shift)
   LDIPOL =      T    correct potential (dipole corrections)
   IDIPOL =      3    1-x, 2-y, 3-z, 4-all directions 
   EPSILON=  1.0000000 bulk dielectric constant

 Exchange correlation treatment:
   GGA     =    --    GGA type
   LEXCH   =     8    internal setting for exchange type
   VOSKOWN=      0    Vosko Wilk Nusair interpolation
   LHFCALC =     F    Hartree Fock is set to
   LHFONE  =     F    Hartree Fock one center treatment
   AEXX    =    0.0000 exact exchange contribution

 Linear response parameters
   LEPSILON=     F    determine dielectric tensor
   LRPA    =     F    only Hartree local field effects (RPA)
   LNABLA  =     F    use nabla operator in PAW spheres
   LVEL    =     F    velocity operator in full k-point grid
   LINTERFAST=   F  fast interpolation
   KINTER  =     0    interpolate to denser k-point grid
   CSHIFT  =0.1000    complex shift for real part using Kramers Kronig
   OMEGAMAX=  -1.0    maximum frequency
   DEG_THRESHOLD= 0.2000000E-02 threshold for treating states as degnerate
   RTIME   =   -0.100 relaxation time in fs
  (WPLASMAI=    0.000 imaginary part of plasma frequency in eV, 0.658/RTIME)
   DFIELD  = 0.0000000 0.0000000 0.0000000 field for delta impulse in time
 
 Orbital magnetization related:
   ORBITALMAG=     F  switch on orbital magnetization
   LCHIMAG   =     F  perturbation theory with respect to B field
   DQ        =  0.001000  dq finite difference perturbation B field
   LLRAUG    =     F  two centre corrections for induced B field



--------------------------------------------------------------------------------------------------------


 finite differences
   using selective dynamics as specified on POSCAR
 charge density and potential will be updated during run
 spin polarized calculation
 RMM-DIIS sequential band-by-band and
  variant of blocked Davidson during initial phase
 perform sub-space diagonalisation
    before iterative eigenvector-optimisation
 modified Broyden-mixing scheme, WC =      100.0
 initial mixing is a Kerker type mixing with AMIX =  0.4000 and BMIX =      1.0000
 Hartree-type preconditioning will be used
 using additional bands          104
 real space projection scheme for non local part
 use partial core corrections
 calculate Harris-corrections to forces 
   (improved forces if not selfconsistent)
 use gradient corrections 
 use of overlap-Matrix (Vanderbilt PP)
 Methfessel and Paxton  Order N= 1 SIGMA  =   0.20


--------------------------------------------------------------------------------------------------------


  energy-cutoff  :      400.00
  volume of cell :     3618.13
      direct lattice vectors                 reciprocal lattice vectors
    10.982000000  0.000000000  0.000000000     0.091058095  0.000000000  0.000000000
     0.000000000 10.982000000  0.000000000     0.000000000  0.091058095  0.000000000
     0.000000000  0.000000000 30.000000000     0.000000000  0.000000000  0.033333333

  length of vectors
    10.982000000 10.982000000 30.000000000     0.091058095  0.091058095  0.033333333


 
 k-points in units of 2pi/SCALE and weight: K-Point Grid                            
   0.00000000  0.00000000  0.00000000       0.062
   0.02276452  0.00000000  0.00000000       0.125
   0.04552905  0.00000000  0.00000000       0.062
   0.00000000  0.02276452  0.00000000       0.125
   0.02276452  0.02276452  0.00000000       0.125
   0.04552905  0.02276452  0.00000000       0.125
  -0.02276452  0.02276452  0.00000000       0.125
   0.00000000  0.04552905  0.00000000       0.062
   0.02276452  0.04552905  0.00000000       0.125
   0.04552905  0.04552905  0.00000000       0.062
 
 k-points in reciprocal lattice and weights: K-Point Grid                            
   0.00000000  0.00000000  0.00000000       0.062
   0.25000000  0.00000000  0.00000000       0.125
   0.50000000  0.00000000  0.00000000       0.062
   0.00000000  0.25000000  0.00000000       0.125
   0.25000000  0.25000000  0.00000000       0.125
   0.50000000  0.25000000  0.00000000       0.125
  -0.25000000  0.25000000  0.00000000       0.125
   0.00000000  0.50000000  0.00000000       0.062
   0.25000000  0.50000000  0.00000000       0.125
   0.50000000  0.50000000  0.00000000       0.062
 
 position of ions in fractional coordinates (direct lattice) 
   0.12495855  0.12499635  0.40280671
   0.12494753  0.37499187  0.40279472
   0.12494563  0.62503415  0.40278445
   0.12495811  0.87503318  0.40280116
   0.37502156  0.12499344  0.40280116
   0.37502661  0.37499397  0.40278790
   0.37503159  0.62503523  0.40278242
   0.37502676  0.87503015  0.40279853
   0.62503405  0.12500104  0.40282840
   0.62503670  0.37499977  0.40282401
   0.62503769  0.62501725  0.40282110
   0.62503341  0.87501738  0.40282611
   0.87496689  0.12500536  0.40283501
   0.87495941  0.37499790  0.40283070
   0.87495267  0.62501453  0.40282456
   0.87495947  0.87502157  0.40282855
   0.00020080  0.00143391  0.46823788
   0.00122716  0.25087603  0.46832067
   0.00018949  0.49996070  0.46825536
   0.99933352  0.75020468  0.46798193
   0.24965058  0.99966112  0.46789154
   0.24976080  0.25006011  0.46818788
   0.24887854  0.49883036  0.46816749
   0.24936599  0.74844074  0.46802903
   0.50021502  0.99936290  0.46773364
   0.50011300  0.24967379  0.46774845
   0.49866349  0.50002128  0.46789401
   0.49921072  0.74944852  0.46774400
   0.75071705  0.00054573  0.46776257
   0.75145390  0.25015333  0.46787074
   0.75012335  0.50060413  0.46786332
   0.74937478  0.75069228  0.46753026
   0.12604096  0.12650800  0.53415144
   0.12648387  0.37510858  0.53472116
   0.12354202  0.62367383  0.53375930
   0.12450796  0.87482638  0.53258753
   0.37515639  0.12385279  0.53239762
   0.37451214  0.37398283  0.53341988
   0.37146660  0.62169665  0.53375056
   0.37490158  0.87286794  0.53237509
   0.62658944  0.12443977  0.53212684
   0.62520708  0.37512874  0.53209002
   0.62312913  0.62543117  0.53225562
   0.62514425  0.87482618  0.53234722
   0.87811756  0.12736519  0.53389012
   0.87574353  0.37576211  0.53292673
   0.87449622  0.62606133  0.53305683
   0.87503478  0.87652266  0.53283460
   0.00071948  0.00162953  0.59870972
   0.00299808  0.25055861  0.60252901
   0.99248817  0.50901407  0.60021994
   0.99857984  0.75360556  0.59842497
   0.25137754  0.99342789  0.59790751
   0.26131655  0.23647876  0.60013710
   0.25080255  0.49936563  0.60319898
   0.24928513  0.74894346  0.59830326
   0.50107913  0.99852182  0.59747334
   0.50542736  0.24849323  0.59718880
   0.49968764  0.49885150  0.59785561
   0.49936325  0.74939854  0.59777340
   0.74992105  0.00027624  0.59792362
   0.75062510  0.25087740  0.59763761
   0.74533920  0.50124538  0.59745018
   0.74815041  0.75164873  0.59783756
   0.19679796  0.41401240  0.65923545
   0.02978948  0.38513503  0.64052120
   0.24379713  0.31442836  0.66608840
 
 position of ions in cartesian coordinates  (Angst):
   1.37229476  1.37270991 12.08420130
   1.37217380  4.11816069 12.08384150
   1.37215290  6.86412503 12.08353353
   1.37228994  9.60961439 12.08403486
   4.11848672  1.37267795 12.08403481
   4.11854226  4.11818373 12.08363687
   4.11859691  6.86413685 12.08347275
   4.11854392  9.60958112 12.08395584
   6.86412394  1.37276138 12.08485187
   6.86415308  4.11824745 12.08472028
   6.86416393  6.86393947 12.08463301
   6.86411688  9.60944089 12.08478316
   9.60888641  1.37280890 12.08505042
   9.60880419  4.11822696 12.08492103
   9.60873024  6.86390953 12.08473693
   9.60880490  9.60948685 12.08485640
   0.00220518  0.01574721 14.04713637
   0.01347664  2.75512057 14.04962025
   0.00208094  5.49056843 14.04766086
  10.97468077  8.23874779 14.03945781
   2.74166265 10.97827846 14.03674622
   2.74287314  2.74616014 14.04563653
   2.73318413  5.47815505 14.04502474
   2.73853731  8.21937617 14.04087098
   5.49336130 10.97500337 14.03200906
   5.49224092  2.74191757 14.03245354
   5.47632242  5.49123371 14.03682037
   5.48233210  8.23044364 14.03232005
   8.24437459  0.00599323 14.03287712
   8.25246676  2.74718385 14.03612227
   8.23785465  5.49763458 14.03589952
   8.22963385  8.24410258 14.02590781
   1.38418185  1.38931083 16.02454325
   1.38904583  4.11944239 16.04163466
   1.35673843  6.84918599 16.01277915
   1.36734637  9.60734326 15.97762579
   4.11996746  1.36015139 15.97192861
   4.11289233  4.10707947 16.00259627
   4.07944624  6.82747256 16.01251675
   4.11716919  9.58583568 15.97125262
   6.88120528  1.36659760 15.96380516
   6.86602414  4.11966384 15.96270067
   6.84320412  6.86848508 15.96766850
   6.86533421  9.60734107 15.97041667
   9.64348704  1.39872449 16.01670364
   9.61741550  4.12661950 15.98780196
   9.60371744  6.87540551 15.99170486
   9.60963192  9.62597190 15.98503799
   0.00790133  0.01789552 17.96129151
   0.03292487  2.75163463 18.07587034
  10.89950510  5.58999256 18.00659813
  10.96640383  8.27609630 17.95274906
   2.76062810 10.90982514 17.93722536
   2.86977837  2.59700972 18.00411297
   2.75431361  5.48403333 18.09596955
   2.73764931  8.22489710 17.94909773
   5.50285097 10.96576658 17.92420012
   5.55060325  2.72895267 17.91566406
   5.48756969  5.47838714 17.93566820
   5.48400726  8.22989479 17.93320202
   8.23563295  0.00303361 17.93770873
   8.24336483  2.75513563 17.92912827
   8.18531512  5.50467680 17.92350545
   8.21618781  8.25460640 17.93512682
   2.16123518  4.54668412 19.77706342
   0.32714803  4.22955291 19.21563601
   2.67738003  3.45305224 19.98265192
 


--------------------------------------------------------------------------------------------------------


 k-point  1 :   0.0000 0.0000 0.0000  plane waves:   65677
 k-point  2 :   0.2500 0.0000 0.0000  plane waves:   65712
 k-point  3 :   0.5000 0.0000 0.0000  plane waves:   65756
 k-point  4 :   0.0000 0.2500 0.0000  plane waves:   65712
 k-point  5 :   0.2500 0.2500 0.0000  plane waves:   65747
 k-point  6 :   0.5000 0.2500 0.0000  plane waves:   65720
 k-point  7 :  -0.2500 0.2500 0.0000  plane waves:   65747
 k-point  8 :   0.0000 0.5000 0.0000  plane waves:   65756
 k-point  9 :   0.2500 0.5000 0.0000  plane waves:   65720
 k-point 10 :   0.5000 0.5000 0.0000  plane waves:   65796

 maximum and minimum number of plane-waves per node :     65796    65677

 maximum number of plane-waves:     65796
 maximum index in each direction: 
   IXMAX=   18   IYMAX=   17   IZMAX=   48
   IXMIN=  -18   IYMIN=  -18   IZMIN=  -48


 serial   3D FFT for wavefunctions
 parallel 3D FFT for charge:
    minimum data exchange during FFTs selected (reduces bandwidth)


 total amount of memory used by VASP MPI-rank0   382359. kBytes
=======================================================================

   base      :      30000. kBytes
   nonlr-proj:      51028. kBytes
   fftplans  :       9850. kBytes
   grid      :      96415. kBytes
   one-center:       2083. kBytes
   wavefun   :     192983. kBytes
 
     INWAV:  cpu time    0.0001: real time    0.0004
 Broyden mixing: mesh for mixing (old mesh)
   NGX = 35   NGY = 35   NGZ = 97
  (NGX  =144   NGY  =144   NGZ  =392)
  gives a total of 118825 points

 initial charge density was supplied:
 charge density of overlapping atoms calculated
 number of electron     656.0000000 magnetization      67.0000000
 keeping initial charge density in first step


--------------------------------------------------------------------------------------------------------


 Maximum index for non-local projection operator         5583
 Maximum index for augmentation-charges          677 (set IRDMAX)


--------------------------------------------------------------------------------------------------------


 First call to EWALD:  gamma=   0.115
 Maximum number of real-space cells 4x 4x 2
 Maximum number of reciprocal cells 2x 2x 5

    FEWALD:  cpu time    0.0048: real time    0.0837
