 vasp.5.4.4.18Apr17-6-g9f103f2a35 (build May 01 2020 14:57:12) complex          
  
 executed on             LinuxIFC date 2021.10.23  11:14:02
 running on   96 total cores
 distrk:  each k-point on   96 cores,    1 groups
 distr:  one band on NCORES_PER_BAND=   1 cores,   96 groups


--------------------------------------------------------------------------------------------------------


 INCAR:
 POTCAR:    PAW_PBE Cu 22Jun2005                  
 POTCAR:    PAW_PBE N 08Apr2002                   
 POTCAR:    PAW_PBE O 08Apr2002                   
 POTCAR:    PAW_PBE H 15Jun2001                   

 ----------------------------------------------------------------------------- 
|                                                                             |
|           W    W    AA    RRRRR   N    N  II  N    N   GGGG   !!!           |
|           W    W   A  A   R    R  NN   N  II  NN   N  G    G  !!!           |
|           W    W  A    A  R    R  N N  N  II  N N  N  G       !!!           |
|           W WW W  AAAAAA  RRRRR   N  N N  II  N  N N  G  GGG   !            |
|           WW  WW  A    A  R   R   N   NN  II  N   NN  G    G                |
|           W    W  A    A  R    R  N    N  II  N    N   GGGG   !!!           |
|                                                                             |
|      For optimal performance we recommend to set                            |
|        NCORE= 4 - approx SQRT( number of cores)                             |
|      NCORE specifies how many cores store one orbital (NPAR=cpu/NCORE).     |
|      This setting can  greatly improve the performance of VASP for DFT.     |
|      The default,   NCORE=1            might be grossly inefficient         |
|      on modern multi-core architectures or massively parallel machines.     |
|      Do your own testing !!!!                                               |
|      Unfortunately you need to use the default for GW and RPA calculations. |
|      (for HF NCORE is supported but not extensively tested yet)             |
|                                                                             |
 ----------------------------------------------------------------------------- 

 POTCAR:    PAW_PBE Cu 22Jun2005                  
   VRHFIN =Cu: d10 p1                                                           
   LEXCH  = PE                                                                  
   EATOM  =  1390.9808 eV,  102.2342 Ry                                         
                                                                                
   TITEL  = PAW_PBE Cu 22Jun2005                                                
   LULTRA =        F    use ultrasoft PP ?                                      
   IUNSCR =        1    unscreen: 0-lin 1-nonlin 2-no                           
   RPACOR =    2.000    partial core radius                                     
   POMASS =   63.546; ZVAL   =   11.000    mass and valenz                      
   RCORE  =    2.300    outmost cutoff radius                                   
   RWIGS  =    2.200; RWIGS  =    1.164    wigner-seitz radius (au A)           
   ENMAX  =  295.446; ENMIN  =  221.585 eV                                      
   ICORE  =        3    local potential                                         
   LCOR   =        T    correct aug charges                                     
   LPAW   =        T    paw PP                                                  
   EAUG   =  586.980                                                            
   DEXC   =    0.000                                                            
   RMAX   =    2.344    core radius for proj-oper                               
   RAUG   =    1.300    factor for augmentation sphere                          
   RDEP   =    2.302    radius for radial grids                                 
   RDEPT  =    1.771    core radius for aug-charge                              
                                                                                
   Atomic configuration                                                         
    9 entries                                                                   
     n  l   j            E        occ.                                          
     1  0  0.50     -8850.2468   2.0000                                         
     2  0  0.50     -1062.3498   2.0000                                         
     2  1  1.50      -916.8226   6.0000                                         
     3  0  0.50      -114.6929   2.0000                                         
     3  1  1.50       -72.1325   6.0000                                         
     3  2  2.50        -5.0394  10.0000                                         
     4  0  0.50        -4.6097   1.0000                                         
     4  1  0.50        -4.0817   0.0000                                         
     4  3  2.50        -1.3606   0.0000                                         
   Description                                                                  
     l       E           TYP  RCUT    TYP  RCUT                                 
     2     -5.0393973     23  2.200                                             
     2     10.8846608     23  2.200                                             
     0     -4.6097109     23  2.200                                             
     0      8.2520465     23  2.200                                             
     1     -2.7211652     23  2.200                                             
     1     21.7055443     23  2.200                                             
     3      2.7211652     23  2.300                                             
  local pseudopotential read in
  partial core-charges read in
  partial kinetic energy density read in
  atomic valenz-charges read in
  non local Contribution for L=           2  read in
    real space projection operators read in
  non local Contribution for L=           2  read in
    real space projection operators read in
  non local Contribution for L=           0  read in
    real space projection operators read in
  non local Contribution for L=           0  read in
    real space projection operators read in
  non local Contribution for L=           1  read in
    real space projection operators read in
  non local Contribution for L=           1  read in
    real space projection operators read in
    PAW grid and wavefunctions read in
 
   number of l-projection  operators is LMAX  =           6
   number of lm-projection operators is LMMAX =          18
 
 POTCAR:    PAW_PBE N 08Apr2002                   
   VRHFIN =N: s2p3                                                              
   LEXCH  = PE                                                                  
   EATOM  =   264.5486 eV,   19.4438 Ry                                         
                                                                                
   TITEL  = PAW_PBE N 08Apr2002                                                 
   LULTRA =        F    use ultrasoft PP ?                                      
   IUNSCR =        1    unscreen: 0-lin 1-nonlin 2-no                           
   RPACOR =    1.200    partial core radius                                     
   POMASS =   14.001; ZVAL   =    5.000    mass and valenz                      
   RCORE  =    1.500    outmost cutoff radius                                   
   RWIGS  =    1.400; RWIGS  =    0.741    wigner-seitz radius (au A)           
   ENMAX  =  400.000; ENMIN  =  300.000 eV                                      
   ICORE  =        2    local potential                                         
   LCOR   =        T    correct aug charges                                     
   LPAW   =        T    paw PP                                                  
   EAUG   =  627.112                                                            
   DEXC   =    0.000                                                            
   RMAX   =    1.529    core radius for proj-oper                               
   RAUG   =    1.300    factor for augmentation sphere                          
   RDEP   =    1.514    radius for radial grids                                 
   RDEPT  =    1.338    core radius for aug-charge                              
                                                                                
   Atomic configuration                                                         
    4 entries                                                                   
     n  l   j            E        occ.                                          
     1  0  0.50      -384.7179   2.0000                                         
     2  0  0.50       -18.5828   2.0000                                         
     2  1  0.50        -7.0898   3.0000                                         
     3  2  1.50        -6.8029   0.0000                                         
   Description                                                                  
     l       E           TYP  RCUT    TYP  RCUT                                 
     0    -18.5828119     23  1.200                                             
     0    -13.5018863     23  1.200                                             
     1     -7.0897853     23  1.500                                             
     1      9.5240782     23  1.500                                             
     2     -6.8029130      7  1.500                                             
  local pseudopotential read in
  partial core-charges read in
  partial kinetic energy density read in
  atomic valenz-charges read in
  non local Contribution for L=           0  read in
    real space projection operators read in
  non local Contribution for L=           0  read in
    real space projection operators read in
  non local Contribution for L=           1  read in
    real space projection operators read in
  non local Contribution for L=           1  read in
    real space projection operators read in
    PAW grid and wavefunctions read in
 
   number of l-projection  operators is LMAX  =           4
   number of lm-projection operators is LMMAX =           8
 
 POTCAR:    PAW_PBE O 08Apr2002                   
   VRHFIN =O: s2p4                                                              
   LEXCH  = PE                                                                  
   EATOM  =   432.3788 eV,   31.7789 Ry                                         
                                                                                
   TITEL  = PAW_PBE O 08Apr2002                                                 
   LULTRA =        F    use ultrasoft PP ?                                      
   IUNSCR =        1    unscreen: 0-lin 1-nonlin 2-no                           
   RPACOR =    1.200    partial core radius                                     
   POMASS =   16.000; ZVAL   =    6.000    mass and valenz                      
   RCORE  =    1.520    outmost cutoff radius                                   
   RWIGS  =    1.550; RWIGS  =    0.820    wigner-seitz radius (au A)           
   ENMAX  =  400.000; ENMIN  =  300.000 eV                                      
   ICORE  =        2    local potential                                         
   LCOR   =        T    correct aug charges                                     
   LPAW   =        T    paw PP                                                  
   EAUG   =  605.392                                                            
   DEXC   =    0.000                                                            
   RMAX   =    1.553    core radius for proj-oper                               
   RAUG   =    1.300    factor for augmentation sphere                          
   RDEP   =    1.550    radius for radial grids                                 
   RDEPT  =    1.329    core radius for aug-charge                              
                                                                                
   Atomic configuration                                                         
    4 entries                                                                   
     n  l   j            E        occ.                                          
     1  0  0.50      -514.6923   2.0000                                         
     2  0  0.50       -23.9615   2.0000                                         
     2  1  0.50        -9.0305   4.0000                                         
     3  2  1.50        -9.5241   0.0000                                         
   Description                                                                  
     l       E           TYP  RCUT    TYP  RCUT                                 
     0    -23.9615318     23  1.200                                             
     0     -9.5240782     23  1.200                                             
     1     -9.0304911     23  1.520                                             
     1      8.1634956     23  1.520                                             
     2     -9.5240782      7  1.500                                             
  local pseudopotential read in
  partial core-charges read in
  partial kinetic energy density read in
  kinetic energy density of atom read in
  atomic valenz-charges read in
  non local Contribution for L=           0  read in
    real space projection operators read in
  non local Contribution for L=           0  read in
    real space projection operators read in
  non local Contribution for L=           1  read in
    real space projection operators read in
  non local Contribution for L=           1  read in
    real space projection operators read in
    PAW grid and wavefunctions read in
 
   number of l-projection  operators is LMAX  =           4
   number of lm-projection operators is LMMAX =           8
 
 POTCAR:    PAW_PBE H 15Jun2001                   
   VRHFIN =H: ultrasoft test                                                    
   LEXCH  = PE                                                                  
   EATOM  =    12.4884 eV,    0.9179 Ry                                         
                                                                                
   TITEL  = PAW_PBE H 15Jun2001                                                 
   LULTRA =        F    use ultrasoft PP ?                                      
   IUNSCR =        0    unscreen: 0-lin 1-nonlin 2-no                           
   RPACOR =    0.000    partial core radius                                     
   POMASS =    1.000; ZVAL   =    1.000    mass and valenz                      
   RCORE  =    1.100    outmost cutoff radius                                   
   RWIGS  =    0.700; RWIGS  =    0.370    wigner-seitz radius (au A)           
   ENMAX  =  250.000; ENMIN  =  200.000 eV                                      
   RCLOC  =    0.701    cutoff for local pot                                    
   LCOR   =        T    correct aug charges                                     
   LPAW   =        T    paw PP                                                  
   EAUG   =  400.000                                                            
   RMAX   =    1.123    core radius for proj-oper                               
   RAUG   =    1.200    factor for augmentation sphere                          
   RDEP   =    1.112    radius for radial grids                                 
   RDEPT  =    0.926    core radius for aug-charge                              
                                                                                
   Atomic configuration                                                         
    2 entries                                                                   
     n  l   j            E        occ.                                          
     1  0  0.50        -6.4927   1.0000                                         
     2  1  0.50        -3.4015   0.0000                                         
   Description                                                                  
     l       E           TYP  RCUT    TYP  RCUT                                 
     0     -6.4927494     23  1.100                                             
     0      6.8029130     23  1.100                                             
     1     -4.0817478     23  1.100                                             
  local pseudopotential read in
  atomic valenz-charges read in
  non local Contribution for L=           0  read in
    real space projection operators read in
  non local Contribution for L=           0  read in
    real space projection operators read in
  non local Contribution for L=           1  read in
    real space projection operators read in
    PAW grid and wavefunctions read in
 
   number of l-projection  operators is LMAX  =           3
   number of lm-projection operators is LMMAX =           5
 
 Optimization of the real space projectors (new method)

 maximal supplied QI-value         = 16.25
 optimisation between [QCUT,QGAM] = [ 10.24, 20.48] = [ 29.35,117.42] Ry 
 Optimized for a Real-space Cutoff    1.55 Angstroem

   l    n(q)    QCUT    max X(q) W(low)/X(q) W(high)/X(q)  e(spline) 
   2      9    10.239     4.610    0.85E-04    0.29E-03    0.14E-06
   2      9    10.239     8.522    0.15E-03    0.50E-03    0.27E-06
   0     10    10.239    51.609    0.45E-04    0.99E-04    0.10E-06
   0     10    10.239    27.747    0.40E-04    0.93E-04    0.97E-07
   1      9    10.239    20.408    0.15E-03    0.78E-05    0.15E-06
   1      9    10.239    13.425    0.13E-03    0.71E-05    0.14E-06
 Optimization of the real space projectors (new method)

 maximal supplied QI-value         = 25.13
 optimisation between [QCUT,QGAM] = [ 10.05, 20.36] = [ 28.30,116.06] Ry 
 Optimized for a Real-space Cutoff    1.70 Angstroem

   l    n(q)    QCUT    max X(q) W(low)/X(q) W(high)/X(q)  e(spline) 
   0     10    10.053    79.467    0.61E-04    0.98E-04    0.61E-06
   0     10    10.053    66.151    0.60E-04    0.98E-04    0.61E-06
   1     10    10.053     8.350    0.17E-03    0.71E-03    0.45E-05
   1     10    10.053     5.531    0.18E-03    0.77E-03    0.49E-05
 Optimization of the real space projectors (new method)

 maximal supplied QI-value         = 24.76
 optimisation between [QCUT,QGAM] = [ 10.15, 20.30] = [ 28.85,115.39] Ry 
 Optimized for a Real-space Cutoff    1.51 Angstroem

   l    n(q)    QCUT    max X(q) W(low)/X(q) W(high)/X(q)  e(spline) 
   0      9    10.150    20.381    0.17E-03    0.18E-03    0.41E-06
   0      9    10.150    15.268    0.18E-03    0.20E-03    0.43E-06
   1      9    10.150     5.964    0.16E-03    0.20E-03    0.36E-06
   1      9    10.150     5.382    0.13E-03    0.16E-03    0.33E-06
 Optimization of the real space projectors (new method)

 maximal supplied QI-value         = 34.20
 optimisation between [QCUT,QGAM] = [  9.92, 20.18] = [ 27.55,114.04] Ry 
 Optimized for a Real-space Cutoff    1.34 Angstroem

   l    n(q)    QCUT    max X(q) W(low)/X(q) W(high)/X(q)  e(spline) 
   0      8     9.919    19.460    0.16E-03    0.20E-03    0.36E-06
   0      8     9.919    12.209    0.16E-03    0.20E-03    0.35E-06
   1      8     9.919     4.655    0.19E-03    0.46E-03    0.40E-06
  PAW_PBE Cu 22Jun2005                  :
 energy of atom  1       EATOM=-1390.9808
 kinetic energy error for atom=    0.0232 (will be added to EATOM!!)
  PAW_PBE N 08Apr2002                   :
 energy of atom  2       EATOM= -264.5486
 kinetic energy error for atom=    0.0736 (will be added to EATOM!!)
  PAW_PBE O 08Apr2002                   :
 energy of atom  3       EATOM= -432.3788
 kinetic energy error for atom=    0.1156 (will be added to EATOM!!)
  PAW_PBE H 15Jun2001                   :
 energy of atom  4       EATOM=  -12.4884
 kinetic energy error for atom=    0.0098 (will be added to EATOM!!)
 
 
 POSCAR: Cu N O H                                
  positions in direct lattice
  velocities in cartesian coordinates
 exchange correlation table for  LEXCH =        8
   RHO(1)=    0.500       N(1)  =     2000
   RHO(2)=  100.500       N(2)  =     4000
 


--------------------------------------------------------------------------------------------------------


 ion  position               nearest neighbor table
   1  0.125  0.125  0.410-  22 2.50  18 2.52  21 2.52   5 2.52   2 2.52  13 2.52   4 2.52  17 2.52

   2  0.125  0.375  0.410-  22 2.51  23 2.51  19 2.52   1 2.52   3 2.52   6 2.52  14 2.52  18 2.52

   3  0.125  0.625  0.410-  23 2.50  24 2.52  19 2.52  20 2.52   4 2.52   7 2.52   2 2.52  15 2.52

   4  0.125  0.875  0.410-  21 2.52  24 2.52  17 2.52  20 2.52   3 2.52   8 2.52   1 2.52  16 2.52

   5  0.375  0.125  0.410-  22 2.50  26 2.51  25 2.52  21 2.52   6 2.52   9 2.52   1 2.52   8 2.52

   6  0.375  0.375  0.410-  23 2.52  22 2.52  26 2.52  27 2.52   2 2.52   5 2.52   7 2.52  10 2.52

   7  0.375  0.625  0.410-  23 2.50  27 2.51  24 2.52  28 2.52   3 2.52   6 2.52   8 2.52  11 2.52

   8  0.375  0.875  0.410-  24 2.52  28 2.52  12 2.52   4 2.52   7 2.52  25 2.52   5 2.52  21 2.52

   9  0.625  0.125  0.410-  26 2.51  30 2.52  29 2.52   5 2.52  10 2.52  13 2.52  12 2.52  25 2.53

  10  0.625  0.375  0.410-  27 2.52  26 2.52  31 2.52  30 2.52   6 2.52   9 2.52  11 2.52  14 2.52

  11  0.625  0.625  0.410-  27 2.51  31 2.52  32 2.52  15 2.52   7 2.52  10 2.52  12 2.52  28 2.53

  12  0.625  0.875  0.410-   8 2.52  11 2.52  16 2.52   9 2.52  28 2.53  29 2.53  32 2.53  25 2.53

  13  0.875  0.125  0.410-  18 2.51  17 2.52   9 2.52  14 2.52   1 2.52  16 2.52  30 2.52  29 2.52

  14  0.875  0.375  0.410-  19 2.52  18 2.52  15 2.52  10 2.52  13 2.52   2 2.52  31 2.52  30 2.53

  15  0.875  0.625  0.410-  19 2.52  20 2.52  16 2.52  11 2.52  14 2.52   3 2.52  32 2.52  31 2.52

  16  0.875  0.875  0.410-  17 2.52  20 2.52  12 2.52  15 2.52  13 2.52   4 2.52  32 2.53  29 2.53

  17  1.000  1.000  0.470-  16 2.52  18 2.52  13 2.52   4 2.52  29 2.52  20 2.52   1 2.52  21 2.52
                            36 2.54  48 2.55  33 2.56  45 2.56
  18  0.999  0.250  0.470-  13 2.51  14 2.52  17 2.52   1 2.52  34 2.52  30 2.52   2 2.52  22 2.53
                            19 2.53  46 2.54  45 2.55  33 2.55
  19  0.999  0.500  0.470-  15 2.52  14 2.52  20 2.52   3 2.52   2 2.52  34 2.52  31 2.52  23 2.53
                            18 2.53  46 2.54  47 2.54  35 2.55
  20  1.000  0.750  0.470-  15 2.52  19 2.52  16 2.52   3 2.52  32 2.52  17 2.52   4 2.52  24 2.52
                            36 2.54  48 2.55  47 2.56  35 2.56
  21  0.250  0.000  0.470-  22 2.51   1 2.52  25 2.52   4 2.52   5 2.52   8 2.52  17 2.52  24 2.52
                            40 2.54  36 2.54  33 2.55  37 2.57
  22  0.250  0.249  0.469-   1 2.50  38 2.50   5 2.50  21 2.51   2 2.51   6 2.52  34 2.52  18 2.53
                            26 2.53  23 2.55  37 2.55  33 2.55
  23  0.250  0.501  0.469-  38 2.50   3 2.50   7 2.50  24 2.51   2 2.51   6 2.52  34 2.52  19 2.53
                            27 2.53  22 2.55  35 2.55  39 2.55
  24  0.250  0.750  0.470-  23 2.51  28 2.52   3 2.52   7 2.52   4 2.52   8 2.52  21 2.52  20 2.52
                            40 2.54  36 2.54  35 2.55  39 2.57
  25  0.500  0.000  0.470-  26 2.52  21 2.52   5 2.52   8 2.52  29 2.52  28 2.52   9 2.53  12 2.53
                            40 2.54  44 2.55  41 2.55  37 2.58
  26  0.500  0.249  0.470-  38 2.50   9 2.51   5 2.51  30 2.51  25 2.52  10 2.52   6 2.52  22 2.53
                            27 2.54  41 2.54  42 2.54  37 2.56
  27  0.500  0.501  0.470-  38 2.50  11 2.51   7 2.51  31 2.51  10 2.52  28 2.52   6 2.52  23 2.53
                            26 2.54  42 2.54  43 2.55  39 2.56
  28  0.500  0.750  0.470-  27 2.52  24 2.52   8 2.52   7 2.52  32 2.52  25 2.52  12 2.53  11 2.53
                            40 2.54  44 2.54  43 2.55  39 2.57
  29  0.750  0.000  0.470-  30 2.52  17 2.52   9 2.52  25 2.52  13 2.52  12 2.53  16 2.53  32 2.53
                            48 2.55  44 2.55  45 2.56  41 2.56
  30  0.749  0.250  0.470-  26 2.51   9 2.52  10 2.52  29 2.52  31 2.52  13 2.52  18 2.52  14 2.53
                            46 2.53  41 2.55  45 2.56  42 2.56
  31  0.749  0.500  0.470-  27 2.51  10 2.52  11 2.52  32 2.52  30 2.52  14 2.52  15 2.52  19 2.52
                            46 2.53  43 2.55  47 2.55  42 2.56
  32  0.750  0.750  0.470-  31 2.52  11 2.52  20 2.52  15 2.52  28 2.52  12 2.53  16 2.53  29 2.53
                            48 2.54  44 2.55  43 2.56  47 2.56
  33  0.125  0.126  0.531-  37 2.51  34 2.51  49 2.51  53 2.51  45 2.52  36 2.53  50 2.54  18 2.55
                            22 2.55  54 2.55  21 2.55  17 2.56
  34  0.127  0.375  0.529-  38 2.49  33 2.51  35 2.51  22 2.52  23 2.52  18 2.52  19 2.52  46 2.55
                            51 2.58  50 2.58  54 2.59  55 2.59
  35  0.126  0.624  0.531-  39 2.51  34 2.51  56 2.51  52 2.52  47 2.52  36 2.53  51 2.53  23 2.55
                            55 2.55  19 2.55  24 2.55  20 2.56
  36  0.125  0.875  0.530-  56 2.52  53 2.52  52 2.52  40 2.52  49 2.52  48 2.52  35 2.53  33 2.53
                            20 2.54  24 2.54  21 2.54  17 2.54
  37  0.374  0.128  0.531-  38 2.50  33 2.51  53 2.51  41 2.52  57 2.52  58 2.54  54 2.54  22 2.55
                            40 2.55  26 2.56  21 2.57  25 2.58
  38  0.373  0.375  0.528-  34 2.49  37 2.50  23 2.50  39 2.50  22 2.50  26 2.50  27 2.50  42 2.51
                            55 2.62  54 2.63  58 2.65  59 2.65
  39  0.374  0.622  0.531-  38 2.50  35 2.51  56 2.51  43 2.52  60 2.52  59 2.54  55 2.54  40 2.55
                            23 2.55  27 2.56  24 2.57  28 2.57
  40  0.374  0.875  0.530-  36 2.52  57 2.52  56 2.52  53 2.52  60 2.52  44 2.52  21 2.54  25 2.54
                            24 2.54  28 2.54  37 2.55  39 2.55
  41  0.623  0.126  0.531-  62 2.51  57 2.51  42 2.51  37 2.52  61 2.52  44 2.54  58 2.54  26 2.54
                            45 2.55  25 2.55  30 2.55  29 2.56
  42  0.622  0.375  0.531-  38 2.51  41 2.51  43 2.51  62 2.52  63 2.52  46 2.54  27 2.54  26 2.54
                            59 2.55  58 2.56  31 2.56  30 2.56
  43  0.624  0.624  0.531-  63 2.51  42 2.51  60 2.51  39 2.52  64 2.52  44 2.53  59 2.54  47 2.54
                            27 2.55  28 2.55  31 2.55  32 2.56
  44  0.625  0.875  0.530-  60 2.51  57 2.52  61 2.52  64 2.52  48 2.52  40 2.52  43 2.53  41 2.54
                            28 2.54  25 2.55  29 2.55  32 2.55
  45  0.875  0.126  0.531-  62 2.50  46 2.51  49 2.51  61 2.52  33 2.52  50 2.53  48 2.54  18 2.55
                            41 2.55  30 2.56  29 2.56  17 2.56
  46  0.874  0.375  0.530-  45 2.51  47 2.51  62 2.52  63 2.52  30 2.53  31 2.53  18 2.54  19 2.54
                            42 2.54  50 2.55  34 2.55  51 2.55
  47  0.876  0.623  0.531-  63 2.50  52 2.51  46 2.51  64 2.52  35 2.52  51 2.52  48 2.54  19 2.54
                            43 2.54  31 2.55  20 2.56  32 2.56
  48  0.875  0.875  0.530-  64 2.52  61 2.52  49 2.52  52 2.52  44 2.52  36 2.52  47 2.54  45 2.54
                            32 2.54  29 2.55  20 2.55  17 2.55
  49  1.000  0.000  0.590-  45 2.51  33 2.51  53 2.52  48 2.52  36 2.52  61 2.53  50 2.53  52 2.53

  50  1.000  0.251  0.591-  67 1.76  51 2.50  54 2.51  45 2.53  62 2.53  49 2.53  33 2.54  46 2.55
                            34 2.58
  51  0.000  0.499  0.591-  67 1.76  50 2.50  55 2.51  47 2.52  63 2.53  52 2.53  35 2.53  46 2.55
                            34 2.58
  52  0.000  0.749  0.590-  47 2.51  35 2.52  36 2.52  56 2.52  48 2.52  64 2.53  51 2.53  49 2.53

  53  0.250  0.000  0.590-  37 2.51  33 2.51  36 2.52  49 2.52  57 2.52  40 2.52  56 2.52  54 2.53

  54  0.248  0.250  0.592-  65 2.21  50 2.51  55 2.52  53 2.53  58 2.54  37 2.54  33 2.55  34 2.59
                            38 2.63
  55  0.249  0.500  0.592-  65 2.20  51 2.51  54 2.52  56 2.53  59 2.54  39 2.54  35 2.55  34 2.59
                            38 2.62
  56  0.250  0.750  0.590-  39 2.51  35 2.51  36 2.52  52 2.52  60 2.52  40 2.52  53 2.52  55 2.53

  57  0.499  1.000  0.590-  41 2.51  58 2.52  44 2.52  60 2.52  40 2.52  53 2.52  37 2.52  61 2.53

  58  0.500  0.249  0.592-  65 2.04  57 2.52  62 2.52  41 2.54  54 2.54  37 2.54  59 2.55  42 2.56
                            38 2.65
  59  0.501  0.501  0.592-  65 2.04  60 2.52  63 2.52  43 2.54  55 2.54  39 2.54  58 2.55  42 2.55
                            38 2.65
  60  0.499  0.750  0.590-  43 2.51  44 2.51  59 2.52  57 2.52  56 2.52  39 2.52  40 2.52  64 2.53

  61  0.750  0.000  0.590-  45 2.52  44 2.52  48 2.52  41 2.52  49 2.53  62 2.53  57 2.53  64 2.53

  62  0.749  0.250  0.589-  45 2.50  41 2.51  63 2.51  58 2.52  42 2.52  46 2.52  61 2.53  50 2.53

  63  0.750  0.499  0.589-  47 2.50  43 2.51  62 2.51  59 2.52  46 2.52  42 2.52  51 2.53  64 2.53

  64  0.750  0.750  0.590-  48 2.52  44 2.52  43 2.52  47 2.52  52 2.53  63 2.53  60 2.53  61 2.53

  65  0.389  0.376  0.630-  66 1.24  59 2.04  58 2.04  55 2.20  54 2.21
  66  0.382  0.376  0.671-  65 1.24
  67  0.104  0.375  0.613-  51 1.76  50 1.76
 
  LATTYP: Found a simple tetragonal cell.
 ALAT       =    10.0912000000
 C/A-ratio  =     2.9728872681
  
  Lattice vectors:
  
 A1 = (  10.0912000000,   0.0000000000,   0.0000000000)
 A2 = (   0.0000000000,  10.0912000000,   0.0000000000)
 A3 = (   0.0000000000,   0.0000000000,  30.0000000000)


Analysis of symmetry for initial positions (statically):
=====================================================================
 Subroutine PRICEL returns:
 Original cell was already a primitive cell.
 

 Routine SETGRP: Setting up the symmetry group for a 
 simple tetragonal supercell.


 Subroutine GETGRP returns: Found  1 space group operations
 (whereof  1 operations were pure point group operations)
 out of a pool of 16 trial point group operations.


The static configuration has the point symmetry C_1 .


Analysis of symmetry for dynamics (positions and initial velocities):
=====================================================================
 Subroutine PRICEL returns:
 Original cell was already a primitive cell.
 

 Routine SETGRP: Setting up the symmetry group for a 
 simple tetragonal supercell.


 Subroutine GETGRP returns: Found  1 space group operations
 (whereof  1 operations were pure point group operations)
 out of a pool of 16 trial point group operations.


The dynamic configuration has the point symmetry C_1 .


Analysis of constrained symmetry for selective dynamics:
=====================================================================
 Subroutine PRICEL returns:
 Original cell was already a primitive cell.
 

 Routine SETGRP: Setting up the symmetry group for a 
 simple tetragonal supercell.


 Subroutine GETGRP returns: Found  1 space group operations
 (whereof  1 operations were pure point group operations)
 out of a pool of 16 trial point group operations.


The constrained configuration has the point symmetry C_1 .


Analysis of structural, dynamic, and magnetic symmetry:
=====================================================================
 Subroutine PRICEL returns:
 Original cell was already a primitive cell.
 

 Routine SETGRP: Setting up the symmetry group for a 
 simple tetragonal supercell.


 Subroutine GETGRP returns: Found  1 space group operations
 (whereof  1 operations were pure point group operations)
 out of a pool of 16 trial point group operations.


The magnetic configuration has the point symmetry C_1 .


 Subroutine INISYM returns: Found  1 space group operations
 (whereof  1 operations are pure point group operations),
 and found     1 'primitive' translations

 
 
 KPOINTS: K-Point Grid                            

Automatic generation of k-mesh.
Space group operators:
 irot       det(A)        alpha          n_x          n_y          n_z        tau_x        tau_y        tau_z
    1     1.000000     0.000000     1.000000     0.000000     0.000000     0.000000     0.000000     0.000000
 
 Subroutine IBZKPT returns following result:
 ===========================================
 
 Found      8 irreducible k-points:
 
 Following reciprocal coordinates:
            Coordinates               Weight
  0.125000  0.125000  0.000000      2.000000
  0.375000  0.125000  0.000000      2.000000
 -0.375000  0.125000  0.000000      2.000000
 -0.125000  0.125000  0.000000      2.000000
  0.125000  0.375000  0.000000      2.000000
  0.375000  0.375000  0.000000      2.000000
 -0.375000  0.375000  0.000000      2.000000
 -0.125000  0.375000  0.000000      2.000000
 
 Following cartesian coordinates:
            Coordinates               Weight
  0.012387  0.012387  0.000000      2.000000
  0.037161  0.012387  0.000000      2.000000
 -0.037161  0.012387  0.000000      2.000000
 -0.012387  0.012387  0.000000      2.000000
  0.012387  0.037161  0.000000      2.000000
  0.037161  0.037161  0.000000      2.000000
 -0.037161  0.037161  0.000000      2.000000
 -0.012387  0.037161  0.000000      2.000000
 


--------------------------------------------------------------------------------------------------------




 Dimension of arrays:
   k-points           NKPTS =      8   k-points in BZ     NKDIM =      8   number of bands    NBANDS=    480
   number of dos      NEDOS =   1200   number of ions     NIONS =     67
   non local maximal  LDIM  =      6   non local SUM 2l+1 LMDIM =     18
   total plane-waves  NPLWV = 960400
   max r-space proj   IRMAX =   6495   max aug-charges    IRDMAX=   9304
   dimension x,y,z NGX =    70 NGY =   70 NGZ =  196
   dimension x,y,z NGXF=   140 NGYF=  140 NGZF=  392
   support grid    NGXF=   140 NGYF=  140 NGZF=  392
   ions per type =              64   1   1   1
   NGX,Y,Z   is equivalent  to a cutoff of  11.53, 11.53, 10.86 a.u.
   NGXF,Y,Z  is equivalent  to a cutoff of  23.06, 23.06, 21.72 a.u.

 SYSTEM =  Pd_100_surface                          
 POSCAR =  Cu N O H                                

 Startparameter for this run:
   NWRITE =      2    write-flag & timer
   PREC   = accura    normal or accurate (medium, high low for compatibility)
   ISTART =      1    job   : 0-new  1-cont  2-samecut
   ICHARG =      0    charge: 1-file 2-atom 10-const
   ISPIN  =      2    spin polarized calculation?
   LNONCOLLINEAR =      F non collinear calculations
   LSORBIT =      F    spin-orbit coupling
   INIWAV =      1    electr: 0-lowe 1-rand  2-diag
   LASPH  =      F    aspherical Exc in radial PAW
   METAGGA=      F    non-selfconsistent MetaGGA calc.

 Electronic Relaxation 1
   ENCUT  =  400.0 eV  29.40 Ry    5.42 a.u.  16.46 16.46 48.92*2*pi/ulx,y,z
   ENINI  =  400.0     initial cutoff
   ENAUG  =  627.1 eV  augmentation charge cutoff
   NELM   =    100;   NELMIN=  2; NELMDL=  0     # of ELM steps 
   EDIFF  = 0.1E-04   stopping-criterion for ELM
   LREAL  =      T    real-space projection
   NLSPLINE    = F    spline interpolate recip. space projectors
   LCOMPAT=      F    compatible to vasp.4.4
   GGA_COMPAT  = T    GGA compatible to vasp.4.4-vasp.4.6
   LMAXPAW     = -100 max onsite density
   LMAXMIX     =    2 max onsite mixed and CHGCAR
   VOSKOWN=      0    Vosko Wilk Nusair interpolation
   ROPT   =   -0.00025  -0.00025  -0.00025  -0.00025
 Ionic relaxation
   EDIFFG = -.2E-01   stopping-criterion for IOM
   NSW    =    500    number of steps for IOM
   NBLOCK =      1;   KBLOCK =    500    inner block; outer block 
   IBRION =      2    ionic relax: 0-MD 1-quasi-New 2-CG
   NFREE  =      1    steps in history (QN), initial steepest desc. (CG)
   ISIF   =      2    stress and relaxation
   IWAVPR =     11    prediction:  0-non 1-charg 2-wave 3-comb
   ISYM   =      2    0-nonsym 1-usesym 2-fastsym
   LCORR  =      T    Harris-Foulkes like correction to forces

   POTIM  = 0.5000    time-step for ionic-motion
   TEIN   =    0.0    initial temperature
   TEBEG  =    0.0;   TEEND  =   0.0 temperature during run
   SMASS  =  -3.00    Nose mass-parameter (am)
   estimated Nose-frequenzy (Omega)   =  0.10E-29 period in steps =****** mass=  -0.233E-26a.u.
   SCALEE = 1.0000    scale energy and forces
   NPACO  =    256;   APACO  = 16.0  distance and # of slots for P.C.
   PSTRESS=    0.0 pullay stress

  Mass of Ions in am
   POMASS =  63.55 14.00 16.00  1.00
  Ionic Valenz
   ZVAL   =  11.00  5.00  6.00  1.00
  Atomic Wigner-Seitz radii
   RWIGS  =  -1.00 -1.00 -1.00 -1.00
  virtual crystal weights 
   VCA    =   1.00  1.00  1.00  1.00
   NELECT =     716.0000    total number of electrons
   NUPDOWN=      -1.0000    fix difference up-down

 DOS related values:
   EMIN   =  10.00;   EMAX   =-10.00  energy-range for DOS
   EFERMI =   0.00
   ISMEAR =     1;   SIGMA  =   0.20  broadening in eV -4-tet -1-fermi 0-gaus

 Electronic relaxation 2 (details)
   IALGO  =     68    algorithm
   LDIAG  =      T    sub-space diagonalisation (order eigenvalues)
   LSUBROT=      F    optimize rotation matrix (better conditioning)
   TURBO    =      0    0=normal 1=particle mesh
   IRESTART =      0    0=no restart 2=restart with 2 vectors
   NREBOOT  =      0    no. of reboots
   NMIN     =      0    reboot dimension
   EREF     =   0.00    reference energy to select bands
   IMIX   =      4    mixing-type and parameters
     AMIX     =   0.40;   BMIX     =  1.00
     AMIX_MAG =   1.60;   BMIX_MAG =  1.00
     AMIN     =   0.10
     WC   =   100.;   INIMIX=   1;  MIXPRE=   1;  MAXMIX= -45

 Intra band minimization:
   WEIMIN = 0.0010     energy-eigenvalue tresh-hold
   EBREAK =  0.52E-08  absolut break condition
   DEPER  =   0.30     relativ break condition  

   TIME   =   0.40     timestep for ELM

  volume/ion in A,a.u.               =      45.60       307.70
  Fermi-wavevector in a.u.,A,eV,Ry     =   1.009354  1.907403 13.861557  1.018796
  Thomas-Fermi vector in A             =   2.142277
 
 Write flags
   LWAVE        =      T    write WAVECAR
   LDOWNSAMPLE  =      F    k-point downsampling of WAVECAR
   LCHARG       =      F    write CHGCAR
   LVTOT        =      F    write LOCPOT, total local potential
   LVHAR        =      F    write LOCPOT, Hartree potential only
   LELF         =      F    write electronic localiz. function (ELF)
   LORBIT       =     11    0 simple, 1 ext, 2 COOP (PROOUT), +10 PAW based schemes


 Dipole corrections
   LMONO  =      F    monopole corrections only (constant potential shift)
   LDIPOL =      T    correct potential (dipole corrections)
   IDIPOL =      3    1-x, 2-y, 3-z, 4-all directions 
   EPSILON=  1.0000000 bulk dielectric constant

 Exchange correlation treatment:
   GGA     =    --    GGA type
   LEXCH   =     8    internal setting for exchange type
   VOSKOWN=      0    Vosko Wilk Nusair interpolation
   LHFCALC =     F    Hartree Fock is set to
   LHFONE  =     F    Hartree Fock one center treatment
   AEXX    =    0.0000 exact exchange contribution

 Linear response parameters
   LEPSILON=     F    determine dielectric tensor
   LRPA    =     F    only Hartree local field effects (RPA)
   LNABLA  =     F    use nabla operator in PAW spheres
   LVEL    =     F    velocity operator in full k-point grid
   LINTERFAST=   F  fast interpolation
   KINTER  =     0    interpolate to denser k-point grid
   CSHIFT  =0.1000    complex shift for real part using Kramers Kronig
   OMEGAMAX=  -1.0    maximum frequency
   DEG_THRESHOLD= 0.2000000E-02 threshold for treating states as degnerate
   RTIME   =   -0.100 relaxation time in fs
  (WPLASMAI=    0.000 imaginary part of plasma frequency in eV, 0.658/RTIME)
   DFIELD  = 0.0000000 0.0000000 0.0000000 field for delta impulse in time
 
 Orbital magnetization related:
   ORBITALMAG=     F  switch on orbital magnetization
   LCHIMAG   =     F  perturbation theory with respect to B field
   DQ        =  0.001000  dq finite difference perturbation B field
   LLRAUG    =     F  two centre corrections for induced B field



--------------------------------------------------------------------------------------------------------


 conjugate gradient relaxation of ions
   using selective dynamics as specified on POSCAR
 charge density and potential will be updated during run
 spin polarized calculation
 RMM-DIIS sequential band-by-band and
  variant of blocked Davidson during initial phase
 perform sub-space diagonalisation
    before iterative eigenvector-optimisation
 modified Broyden-mixing scheme, WC =      100.0
 initial mixing is a Kerker type mixing with AMIX =  0.4000 and BMIX =      1.0000
 Hartree-type preconditioning will be used
 using additional bands          122
 real space projection scheme for non local part
 use partial core corrections
 calculate Harris-corrections to forces 
   (improved forces if not selfconsistent)
 use gradient corrections 
 use of overlap-Matrix (Vanderbilt PP)
 Methfessel and Paxton  Order N= 1 SIGMA  =   0.20


--------------------------------------------------------------------------------------------------------


  energy-cutoff  :      400.00
  volume of cell :     3054.97
      direct lattice vectors                 reciprocal lattice vectors
    10.091200000  0.000000000  0.000000000     0.099096242  0.000000000  0.000000000
     0.000000000 10.091200000  0.000000000     0.000000000  0.099096242  0.000000000
     0.000000000  0.000000000 30.000000000     0.000000000  0.000000000  0.033333333

  length of vectors
    10.091200000 10.091200000 30.000000000     0.099096242  0.099096242  0.033333333


 
 old parameters found on file WAVECAR:
  energy-cutoff  :      400.00
  volume of cell :     3054.97
      direct lattice vectors                 reciprocal lattice vectors
    10.091200000  0.000000000  0.000000000     0.099096242  0.000000000  0.000000000
     0.000000000 10.091200000  0.000000000     0.000000000  0.099096242  0.000000000
     0.000000000  0.000000000 30.000000000     0.000000000  0.000000000  0.033333333

  length of vectors

 
 k-points in units of 2pi/SCALE and weight: K-Point Grid                            
   0.01238703  0.01238703  0.00000000       0.125
   0.03716109  0.01238703  0.00000000       0.125
  -0.03716109  0.01238703  0.00000000       0.125
  -0.01238703  0.01238703  0.00000000       0.125
   0.01238703  0.03716109  0.00000000       0.125
   0.03716109  0.03716109  0.00000000       0.125
  -0.03716109  0.03716109  0.00000000       0.125
  -0.01238703  0.03716109  0.00000000       0.125
 
 k-points in reciprocal lattice and weights: K-Point Grid                            
   0.12500000  0.12500000  0.00000000       0.125
   0.37500000  0.12500000  0.00000000       0.125
  -0.37500000  0.12500000  0.00000000       0.125
  -0.12500000  0.12500000  0.00000000       0.125
   0.12500000  0.37500000  0.00000000       0.125
   0.37500000  0.37500000  0.00000000       0.125
  -0.37500000  0.37500000  0.00000000       0.125
  -0.12500000  0.37500000  0.00000000       0.125
 
 position of ions in fractional coordinates (direct lattice) 
   0.12499981  0.12499981  0.41047690
   0.12499981  0.37499944  0.41047690
   0.12499981  0.62499906  0.41047690
   0.12499981  0.87499868  0.41047690
   0.37499944  0.12499981  0.41047690
   0.37499944  0.37499944  0.41047690
   0.37499944  0.62499906  0.41047690
   0.37499944  0.87499868  0.41047690
   0.62499906  0.12499981  0.41047690
   0.62499906  0.37499944  0.41047690
   0.62499906  0.62499906  0.41047690
   0.62499906  0.87499868  0.41047690
   0.87499868  0.12499981  0.41047690
   0.87499868  0.37499944  0.41047690
   0.87499868  0.62499906  0.41047690
   0.87499868  0.87499868  0.41047690
   0.99967967  0.99983962  0.46986079
   0.99932628  0.24955088  0.46976109
   0.99945169  0.50013229  0.46976371
   0.99981571  0.74987762  0.46984954
   0.24983359  0.00006812  0.46988902
   0.24957863  0.24873743  0.46923280
   0.24969419  0.50117262  0.46923250
   0.24999275  0.74990304  0.46987335
   0.49963645  0.00014293  0.46999202
   0.50009426  0.24944764  0.46952157
   0.50023607  0.50065843  0.46951640
   0.49976938  0.74999952  0.46999097
   0.74974539  0.00030984  0.47004764
   0.74914730  0.24986068  0.46983893
   0.74927550  0.49998667  0.46983612
   0.74985611  0.74958641  0.47002776
   0.12497367  0.12578175  0.53065759
   0.12658248  0.37472709  0.52866366
   0.12552969  0.62380307  0.53060674
   0.12483495  0.87477283  0.53031127
   0.37364295  0.12786920  0.53110927
   0.37337499  0.37509486  0.52754481
   0.37423662  0.62244335  0.53105030
   0.37449843  0.87518572  0.53016930
   0.62298320  0.12629600  0.53083342
   0.62197258  0.37507464  0.53058309
   0.62355662  0.62388779  0.53082671
   0.62464319  0.87507949  0.53049280
   0.87523086  0.12615320  0.53086807
   0.87398571  0.37470690  0.52979187
   0.87566188  0.62334193  0.53083141
   0.87469987  0.87469059  0.53042989
   0.99992962  0.00034757  0.58953976
   0.99972528  0.25117921  0.59058870
   0.00010864  0.49864158  0.59050423
   0.00011884  0.74918678  0.58953876
   0.24958800  0.00008403  0.58958735
   0.24838742  0.25038660  0.59200645
   0.24890614  0.49985645  0.59189201
   0.24977958  0.75009049  0.58955297
   0.49932620  0.99976305  0.58963186
   0.50012400  0.24894608  0.59201832
   0.50072180  0.50127124  0.59192232
   0.49948777  0.75041871  0.58960314
   0.74969693  0.00019253  0.58960816
   0.74942414  0.25049554  0.58943985
   0.74991074  0.49940356  0.58944951
   0.74986915  0.74971074  0.58963429
   0.38908312  0.37576068  0.62957326
   0.38249139  0.37638952  0.67078114
   0.10398271  0.37494044  0.61277777
 
 position of ions in cartesian coordinates  (Angst):
   1.26139810  1.26139810 12.31430703
   1.26139810  3.78419431 12.31430703
   1.26139810  6.30699051 12.31430703
   1.26139810  8.82978672 12.31430703
   3.78419431  1.26139810 12.31430703
   3.78419431  3.78419431 12.31430703
   3.78419431  6.30699051 12.31430703
   3.78419431  8.82978672 12.31430703
   6.30699051  1.26139810 12.31430703
   6.30699051  3.78419431 12.31430703
   6.30699051  6.30699051 12.31430703
   6.30699051  8.82978672 12.31430703
   8.82978672  1.26139810 12.31430703
   8.82978672  3.78419431 12.31430703
   8.82978672  6.30699051 12.31430703
   8.82978672  8.82978672 12.31430703
  10.08796747 10.08958153 14.09582371
  10.08440136  2.51826788 14.09283257
  10.08566685  5.04693500 14.09291139
  10.08934032  7.56716506 14.09548624
   2.52112075  0.00068739 14.09667051
   2.51854790  2.51005910 14.07698386
   2.51971399  5.05743312 14.07697498
   2.52272684  7.56742159 14.09620055
   5.04193138  0.00144236 14.09976073
   5.04655121  2.51722605 14.08564703
   5.04798219  5.05224436 14.08549211
   5.04327276  7.56839515 14.09972898
   7.56583067  0.00312669 14.10142923
   7.55979526  2.52139405 14.09516788
   7.56108890  5.04546553 14.09508352
   7.56694800  7.56422635 14.10083277
   1.26113430  1.26928875 15.91972770
   1.27736908  3.78144605 15.85990989
   1.26674516  6.29492157 15.91820226
   1.25973448  8.82750758 15.90933818
   3.77050573  1.29035365 15.93327825
   3.76780167  3.78515728 15.82634444
   3.77649660  6.28120033 15.93150895
   3.77913853  8.83167409 15.90507886
   6.28664803  1.27447820 15.92500253
   6.27644966  3.78495326 15.91749255
   6.29243460  6.29577646 15.92480122
   6.30339937  8.83060217 15.91478408
   8.83212969  1.27303715 15.92604199
   8.81956463  3.78124231 15.89375614
   8.83647916  6.29026806 15.92494236
   8.82677128  8.82667771 15.91289674
  10.09048978  0.00350741 17.68619292
  10.08842774  2.53469969 17.71766110
   0.00109633  5.03189195 17.71512704
   0.00119927  7.56019365 17.68616271
   2.51864247  0.00084792 17.68762064
   2.50652718  2.52670128 17.76019365
   2.51176168  5.04415141 17.75676025
   2.52057568  7.56931318 17.68658897
   5.03880059 10.08880887 17.68895576
   5.04685135  2.51216469 17.76054954
   5.05288383  5.05842830 17.75766948
   5.04043094  7.57262525 17.68809425
   7.56534161  0.00194284 17.68824485
   7.56258892  2.52780058 17.68319555
   7.56749928  5.03958117 17.68348543
   7.56707957  7.56548097 17.68902876
   3.92631562  3.79187619 18.88719768
   3.85979711  3.79822196 20.12343412
   1.04931030  3.78359895 18.38333305
 


--------------------------------------------------------------------------------------------------------


 k-point  1 :   0.1250 0.1250 0.0000  plane waves:   55537
 k-point  2 :   0.3750 0.1250 0.0000  plane waves:   55487
 k-point  3 :  -0.3750 0.1250 0.0000  plane waves:   55487
 k-point  4 :  -0.1250 0.1250 0.0000  plane waves:   55537
 k-point  5 :   0.1250 0.3750 0.0000  plane waves:   55487
 k-point  6 :   0.3750 0.3750 0.0000  plane waves:   55438
 k-point  7 :  -0.3750 0.3750 0.0000  plane waves:   55438
 k-point  8 :  -0.1250 0.3750 0.0000  plane waves:   55487

 maximum and minimum number of plane-waves per node :     55537    55438

 maximum number of plane-waves:     55537
 maximum index in each direction: 
   IXMAX=   16   IYMAX=   16   IZMAX=   48
   IXMIN=  -16   IYMIN=  -16   IZMIN=  -48


 serial   3D FFT for wavefunctions
 parallel 3D FFT for charge:
    minimum data exchange during FFTs selected (reduces bandwidth)


 total amount of memory used by VASP MPI-rank0   256609. kBytes
=======================================================================

   base      :      30000. kBytes
   nonlr-proj:      56868. kBytes
   fftplans  :       7344. kBytes
   grid      :      87570. kBytes
   one-center:       2083. kBytes
   wavefun   :      72744. kBytes
 
     INWAV:  cpu time   13.7474: real time   13.8866
 Broyden mixing: mesh for mixing (old mesh)
   NGX = 33   NGY = 33   NGZ = 97
  (NGX  =140   NGY  =140   NGZ  =392)
  gives a total of 105633 points

 charge density for first step will be calculated from the start-wavefunctions


--------------------------------------------------------------------------------------------------------


 Maximum index for non-local projection operator         6259
 Maximum index for augmentation-charges          509 (set IRDMAX)


--------------------------------------------------------------------------------------------------------


 initial charge from wavefunction
 First call to EWALD:  gamma=   0.122
 Maximum number of real-space cells 4x 4x 2
 Maximum number of reciprocal cells 2x 2x 5

    FEWALD:  cpu time    0.0186: real time    0.0155


--------------------------------------- Iteration      1(   1)  ---------------------------------------


    POTLOK:  cpu time    0.4467: real time    0.3769
    SETDIJ:  cpu time    0.0626: real time    0.0414
     EDDAV:  cpu time   95.0017: real time   48.0123
       DOS:  cpu time    0.1645: real time    0.1604
    CHARGE:  cpu time    2.3048: real time    2.0810
    MIXING:  cpu time    0.0243: real time    0.0172
    --------------------------------------------
      LOOP:  cpu time   98.0049: real time   50.6893

 eigenvalue-minimisations  : 22272
 total energy-change (2. order) :-0.2368706E+03  (-0.5275901E-03)
 number of electron     716.0000954 magnetization      -0.0000000
 augmentation part      450.1186215 magnetization      -0.0000000

 DIPCOR: dipole corrections for dipol
 direction  3 min pos     1,
 dipolmoment           0.000000      0.000000      0.164551 electrons x Angstroem
 Tr[quadrupol]    -12650.617101

 energy correction for charged system         0.000000 eV
 dipol+quadrupol energy correction           -0.000802 eV
 added-field ion interaction         -0.564338 eV  (added to PSCEN)


 Broyden mixing:
  rms(total) = 0.10819E-01    rms(broyden)= 0.10797E-01
  rms(prec ) = 0.15854E-01
  weight for this iteration     100.00

 Free energy of the ion-electron system (eV)
  ---------------------------------------------------
  alpha Z        PSCENC =      1007.73789847
  Ewald energy   TEWEN  =    587853.73319914
  -Hartree energ DENC   =   -671557.70966881
  -exchange      EXHF   =         0.00000000
  -V(xc)+E(xc)   XCENC  =      2902.97250622
  PAW double counting   =     84826.76355920   -91726.40490147
  entropy T*S    EENTRO =         0.02247899
  eigenvalues    EBANDS =     -3274.49148033
  atomic energy  EATOM  =     89730.50580390
  Solvation  Ediel_sol  =         0.00000000
  ---------------------------------------------------
  free energy    TOTEN  =      -236.87060468 eV

  energy without entropy =     -236.89308367  energy(sigma->0) =     -236.87809767


--------------------------------------------------------------------------------------------------------




--------------------------------------- Iteration      1(   2)  ---------------------------------------


    POTLOK:  cpu time    0.4098: real time    0.2539
    SETDIJ:  cpu time    0.0182: real time    0.0113
    EDDIAG:  cpu time   10.9963: real time    5.5352
  RMM-DIIS:  cpu time   29.6468: real time   14.8824
    ORTHCH:  cpu time    2.3240: real time    1.1649
       DOS:  cpu time    0.0039: real time    0.0020
    CHARGE:  cpu time    2.8261: real time    2.5405
    MIXING:  cpu time    0.0118: real time    0.0074
    --------------------------------------------
      LOOP:  cpu time   46.2370: real time   24.3977

 eigenvalue-minimisations  : 15436
 total energy-change (2. order) :-0.6064397E-02  (-0.2518267E-03)
 number of electron     716.0000954 magnetization      -0.0000000
 augmentation part      450.1188260 magnetization      -0.0000000

 DIPCOR: dipole corrections for dipol
 direction  3 min pos     1,
 dipolmoment           0.000000      0.000000      0.201838 electrons x Angstroem
 Tr[quadrupol]    -12650.601336

 energy correction for charged system         0.000000 eV
 dipol+quadrupol energy correction           -0.001207 eV
 added-field ion interaction         -0.692214 eV  (added to PSCEN)


 Broyden mixing:
  rms(total) = 0.55885E-01    rms(broyden)= 0.55731E-01
  rms(prec ) = 0.70398E-01
  weight for this iteration     100.00

 eigenvalues of (default mixing * dielectric matrix)
  average eigenvalue GAMMA=   0.1523
  0.1523

 Free energy of the ion-electron system (eV)
  ---------------------------------------------------
  alpha Z        PSCENC =      1007.60961768
  Ewald energy   TEWEN  =    587853.73319914
  -Hartree energ DENC   =   -671557.53969517
  -exchange      EXHF   =         0.00000000
  -V(xc)+E(xc)   XCENC  =      2902.99123488
  PAW double counting   =     84826.91733005   -91726.54313719
  entropy T*S    EENTRO =         0.02246212
  eigenvalues    EBANDS =     -3274.57348449
  atomic energy  EATOM  =     89730.50580390
  Solvation  Ediel_sol  =         0.00000000
  ---------------------------------------------------
  free energy    TOTEN  =      -236.87666907 eV

  energy without entropy =     -236.89913119  energy(sigma->0) =     -236.88415645


--------------------------------------------------------------------------------------------------------




--------------------------------------- Iteration      1(   3)  ---------------------------------------


    POTLOK:  cpu time    0.4107: real time    0.2427
    SETDIJ:  cpu time    0.0175: real time    0.0109
    EDDIAG:  cpu time   10.9616: real time    5.4952
  RMM-DIIS:  cpu time   29.6093: real time   14.8421
    ORTHCH:  cpu time    2.3618: real time    1.1839
       DOS:  cpu time    0.0040: real time    0.0020
    CHARGE:  cpu time    2.5824: real time    2.2930
    MIXING:  cpu time    0.0070: real time    0.0035
    --------------------------------------------
      LOOP:  cpu time   45.9544: real time   24.0733

 eigenvalue-minimisations  : 15424
 total energy-change (2. order) : 0.7072235E-02  (-0.1232408E-03)
 number of electron     716.0000954 magnetization      -0.0000000
 augmentation part      450.1110726 magnetization      -0.0000000

 DIPCOR: dipole corrections for dipol
 direction  3 min pos     1,
 dipolmoment           0.000000      0.000000      0.178913 electrons x Angstroem
 Tr[quadrupol]    -12650.625426

 energy correction for charged system         0.000000 eV
 dipol+quadrupol energy correction           -0.000948 eV
 added-field ion interaction         -0.613591 eV  (added to PSCEN)


 Broyden mixing:
  rms(total) = 0.59895E-02    rms(broyden)= 0.53155E-02
  rms(prec ) = 0.73746E-02
  weight for this iteration     100.00
  WARNING: grid for Broyden might be to small

 eigenvalues of (default mixing * dielectric matrix)
  average eigenvalue GAMMA=   0.2503
  0.2760  0.2247

 Free energy of the ion-electron system (eV)
  ---------------------------------------------------
  alpha Z        PSCENC =      1007.68849968
  Ewald energy   TEWEN  =    587853.73319914
  -Hartree energ DENC   =   -671558.54948291
  -exchange      EXHF   =         0.00000000
  -V(xc)+E(xc)   XCENC  =      2902.98130025
  PAW double counting   =     84827.12224249   -91726.82413792
  entropy T*S    EENTRO =         0.02247842
  eigenvalues    EBANDS =     -3273.54949989
  atomic energy  EATOM  =     89730.50580390
  Solvation  Ediel_sol  =         0.00000000
  ---------------------------------------------------
  free energy    TOTEN  =      -236.86959684 eV

  energy without entropy =     -236.89207526  energy(sigma->0) =     -236.87708965


--------------------------------------------------------------------------------------------------------




--------------------------------------- Iteration      1(   4)  ---------------------------------------


    POTLOK:  cpu time    0.3896: real time    0.2480
    SETDIJ:  cpu time    0.0180: real time    0.0112
    EDDIAG:  cpu time   10.9723: real time    5.5013
  RMM-DIIS:  cpu time   28.6982: real time   14.4791
    ORTHCH:  cpu time    2.3277: real time    1.1689
       DOS:  cpu time    0.0041: real time    0.0020
    CHARGE:  cpu time    2.4004: real time    2.1136
    MIXING:  cpu time    0.0060: real time    0.0030
    --------------------------------------------
      LOOP:  cpu time   44.8162: real time   23.5272

 eigenvalue-minimisations  : 15372
 total energy-change (2. order) :-0.4474710E-03  (-0.2206911E-04)
 number of electron     716.0000954 magnetization      -0.0000000
 augmentation part      450.1157041 magnetization      -0.0000000

 DIPCOR: dipole corrections for dipol
 direction  3 min pos     1,
 dipolmoment           0.000000      0.000000      0.175428 electrons x Angstroem
 Tr[quadrupol]    -12650.622618

 energy correction for charged system         0.000000 eV
 dipol+quadrupol energy correction           -0.000911 eV
 added-field ion interaction         -0.601638 eV  (added to PSCEN)


 Broyden mixing:
  rms(total) = 0.21148E-02    rms(broyden)= 0.20734E-02
  rms(prec ) = 0.23885E-02
  weight for this iteration     100.00

 eigenvalues of (default mixing * dielectric matrix)
  average eigenvalue GAMMA=   0.3868
  0.6361  0.1893  0.3351

 Free energy of the ion-electron system (eV)
  ---------------------------------------------------
  alpha Z        PSCENC =      1007.70048846
  Ewald energy   TEWEN  =    587853.73319914
  -Hartree energ DENC   =   -671558.24577179
  -exchange      EXHF   =         0.00000000
  -V(xc)+E(xc)   XCENC  =      2902.97876434
  PAW double counting   =     84827.00205139   -91726.66906860
  entropy T*S    EENTRO =         0.02245968
  eigenvalues    EBANDS =     -3273.89797084
  atomic energy  EATOM  =     89730.50580390
  Solvation  Ediel_sol  =         0.00000000
  ---------------------------------------------------
  free energy    TOTEN  =      -236.87004431 eV

  energy without entropy =     -236.89250399  energy(sigma->0) =     -236.87753087


--------------------------------------------------------------------------------------------------------




--------------------------------------- Iteration      1(   5)  ---------------------------------------


    POTLOK:  cpu time    0.3915: real time    0.2296
    SETDIJ:  cpu time    0.0178: real time    0.0111
    EDDIAG:  cpu time   10.9964: real time    5.5126
  RMM-DIIS:  cpu time   19.5524: real time   10.2287
    ORTHCH:  cpu time    2.2996: real time    1.1545
       DOS:  cpu time    0.0040: real time    0.0020
    CHARGE:  cpu time    2.3951: real time    2.1096
    MIXING:  cpu time    0.0060: real time    0.0030
    --------------------------------------------
      LOOP:  cpu time   35.6628: real time   19.2511

 eigenvalue-minimisations  :  9897
 total energy-change (2. order) :-0.4336586E-04  (-0.2315630E-05)
 number of electron     716.0000954 magnetization      -0.0000000
 augmentation part      450.1156122 magnetization       0.0000000

 DIPCOR: dipole corrections for dipol
 direction  3 min pos     1,
 dipolmoment           0.000000      0.000000      0.174784 electrons x Angstroem
 Tr[quadrupol]    -12650.626010

 energy correction for charged system         0.000000 eV
 dipol+quadrupol energy correction           -0.000905 eV
 added-field ion interaction         -0.599431 eV  (added to PSCEN)


 Broyden mixing:
  rms(total) = 0.57067E-03    rms(broyden)= 0.53112E-03
  rms(prec ) = 0.56818E-03
  weight for this iteration     100.00

 eigenvalues of (default mixing * dielectric matrix)
  average eigenvalue GAMMA=   0.5468
  1.1954  0.1898  0.4283  0.3738

 Free energy of the ion-electron system (eV)
  ---------------------------------------------------
  alpha Z        PSCENC =      1007.70270223
  Ewald energy   TEWEN  =    587853.73319914
  -Hartree energ DENC   =   -671558.38842560
  -exchange      EXHF   =         0.00000000
  -V(xc)+E(xc)   XCENC  =      2902.97826344
  PAW double counting   =     84827.02139789   -91726.68915148
  entropy T*S    EENTRO =         0.02246345
  eigenvalues    EBANDS =     -3273.75634064
  atomic energy  EATOM  =     89730.50580390
  Solvation  Ediel_sol  =         0.00000000
  ---------------------------------------------------
  free energy    TOTEN  =      -236.87008768 eV

  energy without entropy =     -236.89255112  energy(sigma->0) =     -236.87757549


--------------------------------------------------------------------------------------------------------




--------------------------------------- Iteration      1(   6)  ---------------------------------------


    POTLOK:  cpu time    0.4163: real time    0.2411
    SETDIJ:  cpu time    0.0180: real time    0.0112
    EDDIAG:  cpu time   10.9471: real time    5.4874
  RMM-DIIS:  cpu time   17.3349: real time    9.5935
    ORTHCH:  cpu time    2.3120: real time    1.1607
       DOS:  cpu time    0.0039: real time    0.0020
    CHARGE:  cpu time    2.3972: real time    2.1118
    MIXING:  cpu time    0.0062: real time    0.0031
    --------------------------------------------
      LOOP:  cpu time   33.4356: real time   18.6107

 eigenvalue-minimisations  :  9148
 total energy-change (2. order) :-0.1316259E-04  (-0.8852540E-06)
 number of electron     716.0000954 magnetization      -0.0000000
 augmentation part      450.1153034 magnetization       0.0000000

 DIPCOR: dipole corrections for dipol
 direction  3 min pos     1,
 dipolmoment           0.000000      0.000000      0.174738 electrons x Angstroem
 Tr[quadrupol]    -12650.628735

 energy correction for charged system         0.000000 eV
 dipol+quadrupol energy correction           -0.000904 eV
 added-field ion interaction         -0.599273 eV  (added to PSCEN)


 Broyden mixing:
  rms(total) = 0.51059E-03    rms(broyden)= 0.50798E-03
  rms(prec ) = 0.56303E-03
  weight for this iteration     100.00

 eigenvalues of (default mixing * dielectric matrix)
  average eigenvalue GAMMA=   0.6393
  1.5654  0.7749  0.1903  0.3522  0.3136

 Free energy of the ion-electron system (eV)
  ---------------------------------------------------
  alpha Z        PSCENC =      1007.70286134
  Ewald energy   TEWEN  =    587853.73319914
  -Hartree energ DENC   =   -671558.51921879
  -exchange      EXHF   =         0.00000000
  -V(xc)+E(xc)   XCENC  =      2902.97873921
  PAW double counting   =     84827.03071662   -91726.70068153
  entropy T*S    EENTRO =         0.02246305
  eigenvalues    EBANDS =     -3273.62398379
  atomic energy  EATOM  =     89730.50580390
  Solvation  Ediel_sol  =         0.00000000
  ---------------------------------------------------
  free energy    TOTEN  =      -236.87010084 eV

  energy without entropy =     -236.89256389  energy(sigma->0) =     -236.87758852


--------------------------------------------------------------------------------------------------------




--------------------------------------- Iteration      1(   7)  ---------------------------------------


    POTLOK:  cpu time    0.3806: real time    0.2290
    SETDIJ:  cpu time    0.0173: real time    0.0108
    EDDIAG:  cpu time   10.9992: real time    5.5146
  RMM-DIIS:  cpu time   17.0496: real time    9.3120
    ORTHCH:  cpu time    2.2798: real time    1.1447
       DOS:  cpu time    0.0039: real time    0.0020
    --------------------------------------------
      LOOP:  cpu time   30.7302: real time   16.2130

 eigenvalue-minimisations  :  9040
 total energy-change (2. order) :-0.1628403E-05  (-0.2382987E-06)
 number of electron     716.0000954 magnetization      -0.0000000
 augmentation part      450.1153034 magnetization       0.0000000

 DIPCOR: dipole corrections for dipol
 direction  3 min pos     1,
 dipolmoment           0.000000      0.000000      0.174953 electrons x Angstroem
 Tr[quadrupol]    -12650.632273

 energy correction for charged system         0.000000 eV
 dipol+quadrupol energy correction           -0.000907 eV
 added-field ion interaction         -0.600013 eV  (added to PSCEN)


 Free energy of the ion-electron system (eV)
  ---------------------------------------------------
  alpha Z        PSCENC =      1007.70211921
  Ewald energy   TEWEN  =    587853.73319914
  -Hartree energ DENC   =   -671558.69017547
  -exchange      EXHF   =         0.00000000
  -V(xc)+E(xc)   XCENC  =      2902.97914849
  PAW double counting   =     84827.02455358   -91726.69563846
  entropy T*S    EENTRO =         0.02246353
  eigenvalues    EBANDS =     -3273.45157640
  atomic energy  EATOM  =     89730.50580390
  Solvation  Ediel_sol  =         0.00000000
  ---------------------------------------------------
  free energy    TOTEN  =      -236.87010247 eV

  energy without entropy =     -236.89256600  energy(sigma->0) =     -236.87759031


--------------------------------------------------------------------------------------------------------




 average (electrostatic) potential at core
  the test charge radii are     0.9430  0.7089  0.7215  0.5201
  (the norm of the test charge is              1.0000)
       1 -72.5012       2 -72.4840       3 -72.5012       4 -72.5007       5 -72.4810
       6 -72.5005       7 -72.4810       8 -72.4983       9 -72.5025      10 -72.4876
      11 -72.5026      12 -72.4891      13 -72.4873      14 -72.4924      15 -72.4872
      16 -72.4999      17 -72.9227      18 -72.9317      19 -72.9316      20 -72.9231
      21 -72.9322      22 -72.9174      23 -72.9175      24 -72.9324      25 -72.9198
      26 -72.9269      27 -72.9269      28 -72.9200      29 -72.9207      30 -72.9245
      31 -72.9246      32 -72.9212      33 -72.9184      34 -72.8666      35 -72.9196
      36 -72.8958      37 -72.9085      38 -72.8185      39 -72.9089      40 -72.9156
      41 -72.9238      42 -72.8968      43 -72.9249      44 -72.8998      45 -72.9204
      46 -72.8982      47 -72.9208      48 -72.9143      49 -72.4778      50 -72.7299
      51 -72.7331      52 -72.4780      53 -72.4879      54 -72.8816      55 -72.8877
      56 -72.4882      57 -72.4870      58 -72.9297      59 -72.9363      60 -72.4876
      61 -72.4718      62 -72.4940      63 -72.4942      64 -72.4714      65 -73.4917
      66 -78.9829      67 -38.6207
 
 
 
 E-fermi :  -1.5616     XC(G=0):  -3.8203     alpha+bet : -3.3842


 spin component 1

 k-point     1 :       0.1250    0.1250    0.0000
  band No.  band energies     occupation 
      1     -25.7965      1.00000
      2     -14.5275      1.00000
      3     -10.4951      1.00000
      4      -9.5730      1.00000
      5      -9.4311      1.00000
      6      -9.2707      1.00000
      7      -9.0712      1.00000
      8      -8.8913      1.00000
      9      -8.7682      1.00000
     10      -8.6544      1.00000
     11      -8.5807      1.00000
     12      -8.3364      1.00000
     13      -8.1545      1.00000
     14      -7.7854      1.00000
     15      -7.7462      1.00000
     16      -7.7053      1.00000
     17      -7.5405      1.00000
     18      -7.2830      1.00000
     19      -7.2469      1.00000
     20      -7.1501      1.00000
     21      -6.8944      1.00000
     22      -6.6998      1.00000
     23      -6.6955      1.00000
     24      -6.6590      1.00000
     25      -6.5497      1.00000
     26      -6.5484      1.00000
     27      -6.5086      1.00000
     28      -6.4799      1.00000
     29      -6.3631      1.00000
     30      -6.3030      1.00000
     31      -6.2796      1.00000
     32      -6.2009      1.00000
     33      -6.1910      1.00000
     34      -6.1788      1.00000
     35      -6.1547      1.00000
     36      -6.1474      1.00000
     37      -6.1253      1.00000
     38      -6.0847      1.00000
     39      -6.0335      1.00000
     40      -6.0258      1.00000
     41      -6.0130      1.00000
     42      -5.9826      1.00000
     43      -5.9720      1.00000
     44      -5.9638      1.00000
     45      -5.9572      1.00000
     46      -5.9444      1.00000
     47      -5.9298      1.00000
     48      -5.9148      1.00000
     49      -5.8827      1.00000
     50      -5.8782      1.00000
     51      -5.8308      1.00000
     52      -5.8170      1.00000
     53      -5.8145      1.00000
     54      -5.8125      1.00000
     55      -5.8084      1.00000
     56      -5.7985      1.00000
     57      -5.7932      1.00000
     58      -5.7886      1.00000
     59      -5.7821      1.00000
     60      -5.7644      1.00000
     61      -5.7569      1.00000
     62      -5.7338      1.00000
     63      -5.6857      1.00000
     64      -5.6332      1.00000
     65      -5.6305      1.00000
     66      -5.6011      1.00000
     67      -5.5955      1.00000
     68      -5.5884      1.00000
     69      -5.5799      1.00000
     70      -5.5681      1.00000
     71      -5.5488      1.00000
     72      -5.5368      1.00000
     73      -5.5173      1.00000
     74      -5.5088      1.00000
     75      -5.4731      1.00000
     76      -5.4521      1.00000
     77      -5.4514      1.00000
     78      -5.4225      1.00000
     79      -5.4166      1.00000
     80      -5.3998      1.00000
     81      -5.3656      1.00000
     82      -5.3263      1.00000
     83      -5.3238      1.00000
     84      -5.3151      1.00000
     85      -5.2956      1.00000
     86      -5.2920      1.00000
     87      -5.2645      1.00000
     88      -5.2585      1.00000
     89      -5.2281      1.00000
     90      -5.2223      1.00000
     91      -5.2156      1.00000
     92      -5.2079      1.00000
     93      -5.1854      1.00000
     94      -5.1652      1.00000
     95      -5.1571      1.00000
     96      -5.1493      1.00000
     97      -5.1432      1.00000
     98      -5.1360      1.00000
     99      -5.0901      1.00000
    100      -5.0691      1.00000
    101      -5.0637      1.00000
    102      -5.0581      1.00000
    103      -5.0423      1.00000
    104      -5.0269      1.00000
    105      -5.0157      1.00000
    106      -4.9917      1.00000
    107      -4.9795      1.00000
    108      -4.9511      1.00000
    109      -4.9443      1.00000
    110      -4.9407      1.00000
    111      -4.9328      1.00000
    112      -4.9288      1.00000
    113      -4.9174      1.00000
    114      -4.9067      1.00000
    115      -4.8996      1.00000
    116      -4.8859      1.00000
    117      -4.8679      1.00000
    118      -4.8597      1.00000
    119      -4.8514      1.00000
    120      -4.8462      1.00000
    121      -4.8450      1.00000
    122      -4.8421      1.00000
    123      -4.8292      1.00000
    124      -4.8180      1.00000
    125      -4.7942      1.00000
    126      -4.7614      1.00000
    127      -4.7502      1.00000
    128      -4.7348      1.00000
    129      -4.7137      1.00000
    130      -4.6850      1.00000
    131      -4.6765      1.00000
    132      -4.6663      1.00000
    133      -4.6589      1.00000
    134      -4.6480      1.00000
    135      -4.6446      1.00000
    136      -4.6409      1.00000
    137      -4.6338      1.00000
    138      -4.6125      1.00000
    139      -4.6029      1.00000
    140      -4.5976      1.00000
    141      -4.5613      1.00000
    142      -4.5574      1.00000
    143      -4.5554      1.00000
    144      -4.5460      1.00000
    145      -4.5352      1.00000
    146      -4.5286      1.00000
    147      -4.5226      1.00000
    148      -4.5154      1.00000
    149      -4.5059      1.00000
    150      -4.4978      1.00000
    151      -4.4866      1.00000
    152      -4.4850      1.00000
    153      -4.4765      1.00000
    154      -4.4703      1.00000
    155      -4.4651      1.00000
    156      -4.4584      1.00000
    157      -4.4564      1.00000
    158      -4.4528      1.00000
    159      -4.4458      1.00000
    160      -4.4341      1.00000
    161      -4.4280      1.00000
    162      -4.4169      1.00000
    163      -4.4066      1.00000
    164      -4.4021      1.00000
    165      -4.3970      1.00000
    166      -4.3926      1.00000
    167      -4.3806      1.00000
    168      -4.3775      1.00000
    169      -4.3684      1.00000
    170      -4.3593      1.00000
    171      -4.3568      1.00000
    172      -4.3374      1.00000
    173      -4.3179      1.00000
    174      -4.2942      1.00000
    175      -4.2892      1.00000
    176      -4.2825      1.00000
    177      -4.2533      1.00000
    178      -4.2415      1.00000
    179      -4.2263      1.00000
    180      -4.2093      1.00000
    181      -4.1983      1.00000
    182      -4.1931      1.00000
    183      -4.1744      1.00000
    184      -4.1570      1.00000
    185      -4.1507      1.00000
    186      -4.1491      1.00000
    187      -4.1316      1.00000
    188      -4.1214      1.00000
    189      -4.1195      1.00000
    190      -4.1092      1.00000
    191      -4.0951      1.00000
    192      -4.0889      1.00000
    193      -4.0816      1.00000
    194      -4.0715      1.00000
    195      -4.0608      1.00000
    196      -4.0512      1.00000
    197      -4.0459      1.00000
    198      -4.0442      1.00000
    199      -4.0369      1.00000
    200      -4.0308      1.00000
    201      -4.0271      1.00000
    202      -4.0174      1.00000
    203      -4.0133      1.00000
    204      -4.0109      1.00000
    205      -4.0032      1.00000
    206      -3.9996      1.00000
    207      -3.9932      1.00000
    208      -3.9833      1.00000
    209      -3.9794      1.00000
    210      -3.9767      1.00000
    211      -3.9678      1.00000
    212      -3.9618      1.00000
    213      -3.9569      1.00000
    214      -3.9497      1.00000
    215      -3.9444      1.00000
    216      -3.9409      1.00000
    217      -3.9360      1.00000
    218      -3.9201      1.00000
    219      -3.9152      1.00000
    220      -3.9073      1.00000
    221      -3.9025      1.00000
    222      -3.8976      1.00000
    223      -3.8883      1.00000
    224      -3.8874      1.00000
    225      -3.8779      1.00000
    226      -3.8713      1.00000
    227      -3.8664      1.00000
    228      -3.8594      1.00000
    229      -3.8473      1.00000
    230      -3.8390      1.00000
    231      -3.8258      1.00000
    232      -3.8155      1.00000
    233      -3.8018      1.00000
    234      -3.7938      1.00000
    235      -3.7777      1.00000
    236      -3.7752      1.00000
    237      -3.7649      1.00000
    238      -3.7581      1.00000
    239      -3.7469      1.00000
    240      -3.7442      1.00000
    241      -3.7322      1.00000
    242      -3.7259      1.00000
    243      -3.7250      1.00000
    244      -3.7052      1.00000
    245      -3.6980      1.00000
    246      -3.6937      1.00000
    247      -3.6827      1.00000
    248      -3.6758      1.00000
    249      -3.6746      1.00000
    250      -3.6658      1.00000
    251      -3.6556      1.00000
    252      -3.6461      1.00000
    253      -3.6363      1.00000
    254      -3.6280      1.00000
    255      -3.6251      1.00000
    256      -3.6155      1.00000
    257      -3.6116      1.00000
    258      -3.6101      1.00000
    259      -3.5993      1.00000
    260      -3.5895      1.00000
    261      -3.5838      1.00000
    262      -3.5771      1.00000
    263      -3.5701      1.00000
    264      -3.5644      1.00000
    265      -3.5604      1.00000
    266      -3.5525      1.00000
    267      -3.5489      1.00000
    268      -3.5367      1.00000
    269      -3.5339      1.00000
    270      -3.5249      1.00000
    271      -3.5210      1.00000
    272      -3.5106      1.00000
    273      -3.5019      1.00000
    274      -3.4892      1.00000
    275      -3.4808      1.00000
    276      -3.4759      1.00000
    277      -3.4635      1.00000
    278      -3.4501      1.00000
    279      -3.4296      1.00000
    280      -3.4250      1.00000
    281      -3.4215      1.00000
    282      -3.4124      1.00000
    283      -3.4023      1.00000
    284      -3.3984      1.00000
    285      -3.3866      1.00000
    286      -3.3772      1.00000
    287      -3.3692      1.00000
    288      -3.3627      1.00000
    289      -3.3558      1.00000
    290      -3.3502      1.00000
    291      -3.3440      1.00000
    292      -3.3366      1.00000
    293      -3.3314      1.00000
    294      -3.3267      1.00000
    295      -3.3171      1.00000
    296      -3.3136      1.00000
    297      -3.3111      1.00000
    298      -3.3088      1.00000
    299      -3.3021      1.00000
    300      -3.2954      1.00000
    301      -3.2917      1.00000
    302      -3.2892      1.00000
    303      -3.2869      1.00000
    304      -3.2643      1.00000
    305      -3.2560      1.00000
    306      -3.2516      1.00000
    307      -3.2399      1.00000
    308      -3.2188      1.00000
    309      -3.2060      1.00000
    310      -3.1921      1.00000
    311      -3.1790      1.00000
    312      -3.1662      1.00000
    313      -3.1638      1.00000
    314      -3.1576      1.00000
    315      -3.1545      1.00000
    316      -3.1468      1.00000
    317      -3.1436      1.00000
    318      -3.1379      1.00000
    319      -3.1335      1.00000
    320      -3.1243      1.00000
    321      -3.1187      1.00000
    322      -3.1171      1.00000
    323      -3.1156      1.00000
    324      -3.1106      1.00000
    325      -3.1071      1.00000
    326      -3.1045      1.00000
    327      -3.1012      1.00000
    328      -3.0985      1.00000
    329      -3.0962      1.00000
    330      -3.0916      1.00000
    331      -3.0824      1.00000
    332      -3.0769      1.00000
    333      -3.0688      1.00000
    334      -3.0643      1.00000
    335      -3.0632      1.00000
    336      -3.0580      1.00000
    337      -3.0557      1.00000
    338      -3.0456      1.00000
    339      -2.9835      1.00000
    340      -2.8944      1.00000
    341      -2.7956      1.00000
    342      -2.7572      1.00000
    343      -2.7398      1.00000
    344      -2.6911      1.00000
    345      -2.6852      1.00000
    346      -2.5136      1.00000
    347      -2.3818      1.00000
    348      -2.3502      1.00000
    349      -2.2888      1.00000
    350      -2.1935      1.00004
    351      -2.1838      1.00005
    352      -2.1061      1.00041
    353      -1.9986      1.00421
    354      -1.7581      1.02323
    355      -1.6895      0.93691
    356      -1.6334      0.78315
    357      -1.5923      0.62824
    358      -1.5255      0.35000
    359      -1.3149     -0.03545
    360      -1.2596     -0.02719
    361      -1.2140     -0.01692
[...]
   -.133E+02 0.141E+02 0.141E+04   0.133E+02 -.140E+02 -.140E+04   0.239E-01 -.329E-01 -.378E+00   0.132E-02 -.313E-02 -.124E-01
   -.133E+02 -.138E+02 0.141E+04   0.133E+02 0.138E+02 -.141E+04   0.258E-01 0.347E-01 -.375E+00   0.736E-03 0.237E-02 -.125E-01
   -.652E+01 -.873E+01 0.137E+04   0.651E+01 0.889E+01 -.137E+04   0.482E-02 -.157E+00 -.483E+00   0.337E-03 -.313E-03 -.100E-01
   -.315E+01 0.680E+01 0.136E+04   0.311E+01 -.683E+01 -.136E+04   0.405E-01 0.278E-01 -.508E+00   0.180E-02 0.113E-02 -.860E-02
   -.576E+01 0.886E+01 0.138E+04   0.588E+01 -.876E+01 -.138E+04   -.127E+00 -.101E+00 -.566E+00   0.398E-02 0.488E-03 -.105E-01
   -.583E+01 -.868E+01 0.138E+04   0.595E+01 0.858E+01 -.138E+04   -.126E+00 0.100E+00 -.565E+00   0.360E-02 0.481E-03 -.105E-01
   -.322E+01 -.706E+01 0.136E+04   0.317E+01 0.709E+01 -.136E+04   0.424E-01 -.275E-01 -.508E+00   0.190E-02 -.457E-03 -.816E-02
   0.209E+02 0.237E+02 -.124E+04   -.208E+02 -.233E+02 0.124E+04   -.149E+00 -.455E+00 -.160E+00   0.181E-02 -.166E-02 -.118E-01
   0.350E+02 0.180E+00 -.115E+04   -.349E+02 -.180E+00 0.115E+04   -.139E+00 0.893E-04 0.240E+01   -.141E-02 0.272E-02 -.179E-01
   0.213E+02 -.241E+02 -.123E+04   -.211E+02 0.236E+02 0.123E+04   -.151E+00 0.457E+00 -.167E+00   -.318E-02 0.553E-02 -.101E-01
   0.133E+02 -.245E+00 -.124E+04   -.134E+02 0.249E+00 0.124E+04   0.419E-01 -.358E-02 0.471E+00   -.133E-02 0.284E-02 -.106E-01
   -.337E+01 0.383E+02 -.124E+04   0.336E+01 -.383E+02 0.123E+04   0.505E-02 -.752E-01 0.361E+00   0.313E-02 -.763E-02 -.138E-01
   -.676E+01 0.319E+00 -.108E+04   0.654E+01 -.323E+00 0.108E+04   0.224E+00 0.430E-02 0.806E+00   0.352E-02 -.719E-03 -.199E-01
   -.312E+01 -.383E+02 -.123E+04   0.312E+01 0.382E+02 0.123E+04   0.619E-02 0.724E-01 0.369E+00   -.190E-02 0.610E-02 -.136E-01
   -.190E+01 -.267E+00 -.122E+04   0.194E+01 0.267E+00 0.122E+04   -.382E-01 0.122E-02 0.206E+00   0.868E-03 -.164E-02 -.115E-01
   -.230E+02 0.268E+02 -.124E+04   0.227E+02 -.265E+02 0.124E+04   0.286E+00 -.346E+00 0.511E-01   0.871E-02 -.682E-02 -.139E-01
   -.300E+02 0.400E+00 -.121E+04   0.298E+02 -.401E+00 0.121E+04   0.200E+00 0.117E-02 0.355E+00   0.119E-01 -.103E-02 -.164E-01
   -.231E+02 -.269E+02 -.124E+04   0.228E+02 0.266E+02 0.124E+04   0.289E+00 0.349E+00 0.500E-01   0.477E-02 0.490E-02 -.151E-01
   -.138E+02 -.198E+00 -.124E+04   0.139E+02 0.198E+00 0.124E+04   -.798E-01 -.378E-03 0.523E+00   0.150E-02 -.672E-03 -.100E-01
   0.422E+01 0.200E+02 -.126E+04   -.402E+01 -.200E+02 0.126E+04   -.199E+00 0.472E-02 0.233E+00   0.329E-02 0.179E-04 -.110E-01
   -.156E+01 0.116E+00 -.121E+04   0.161E+01 -.115E+00 0.121E+04   -.474E-01 -.126E-02 -.415E-02   0.577E-02 0.266E-02 -.111E-01
   0.434E+01 -.203E+02 -.125E+04   -.414E+01 0.203E+02 0.125E+04   -.196E+00 -.736E-02 0.235E+00   0.704E-03 0.433E-02 -.983E-02
   0.187E+01 -.213E+00 -.125E+04   -.185E+01 0.214E+00 0.125E+04   -.193E-01 -.134E-02 0.110E+00   0.107E-02 0.339E-02 -.101E-01
   0.207E+02 0.273E+02 -.381E+04   -.208E+02 -.271E+02 0.380E+04   0.215E-01 -.179E+00 0.353E+01   -.801E-03 -.121E-02 -.139E-01
   0.695E+02 0.548E+02 -.379E+04   -.703E+02 -.558E+02 0.379E+04   0.871E+00 0.972E+00 0.245E+01   -.567E-02 -.264E-02 -.598E-02
   0.694E+02 -.543E+02 -.379E+04   -.703E+02 0.553E+02 0.378E+04   0.878E+00 -.983E+00 0.244E+01   -.525E-02 -.657E-04 -.405E-02
   0.208E+02 -.276E+02 -.381E+04   -.208E+02 0.274E+02 0.380E+04   0.218E-01 0.181E+00 0.353E+01   -.499E-03 0.235E-02 -.148E-01
   0.201E+02 0.517E+02 -.379E+04   -.203E+02 -.517E+02 0.378E+04   0.178E+00 -.605E-01 0.341E+01   -.276E-02 -.452E-02 -.144E-01
   0.106E+03 0.137E+03 -.370E+04   -.106E+03 -.140E+03 0.369E+04   0.881E-01 0.301E+01 0.443E+01   -.103E-01 -.115E-01 -.155E-01
   0.107E+03 -.137E+03 -.369E+04   -.107E+03 0.140E+03 0.369E+04   0.848E-01 -.299E+01 0.443E+01   -.113E-01 0.106E-01 -.129E-01
   0.202E+02 -.521E+02 -.379E+04   -.204E+02 0.520E+02 0.378E+04   0.178E+00 0.560E-01 0.341E+01   -.264E-02 0.351E-02 -.142E-01
   -.223E+02 0.510E+02 -.379E+04   0.225E+02 -.510E+02 0.378E+04   -.130E+00 0.300E-01 0.350E+01   0.524E-03 -.462E-02 -.151E-01
   -.130E+03 0.142E+03 -.368E+04   0.132E+03 -.144E+03 0.368E+04   -.187E+01 0.201E+01 0.302E+01   0.131E-01 -.117E-01 -.285E-01
   -.131E+03 -.141E+03 -.368E+04   0.133E+03 0.143E+03 0.368E+04   -.190E+01 -.198E+01 0.302E+01   0.116E-01 0.136E-01 -.275E-01
   -.224E+02 -.515E+02 -.379E+04   0.225E+02 0.516E+02 0.378E+04   -.131E+00 -.355E-01 0.350E+01   0.154E-02 0.592E-02 -.150E-01
   -.182E+02 0.224E+02 -.381E+04   0.181E+02 -.226E+02 0.381E+04   0.507E-01 0.190E+00 0.361E+01   0.124E-02 -.204E-02 -.135E-01
   -.452E+02 0.276E+02 -.378E+04   0.456E+02 -.278E+02 0.378E+04   -.353E+00 0.250E+00 0.351E+01   0.227E-02 -.508E-03 -.139E-01
   -.454E+02 -.272E+02 -.378E+04   0.458E+02 0.274E+02 0.378E+04   -.347E+00 -.249E+00 0.351E+01   0.103E-02 0.831E-04 -.149E-01
   -.184E+02 -.226E+02 -.381E+04   0.183E+02 0.228E+02 0.381E+04   0.510E-01 -.191E+00 0.361E+01   0.179E-02 0.121E-02 -.145E-01
   -.567E+01 0.126E+01 -.194E+04   0.669E+01 -.143E+01 0.192E+04   -.102E+01 0.165E+00 0.242E+02   0.254E-03 0.230E-04 -.941E-02
   0.645E+01 -.116E+01 -.270E+04   -.927E+01 0.139E+01 0.276E+04   0.282E+01 -.240E+00 -.536E+02   -.117E-02 0.146E-02 0.176E-01
   0.332E+01 -.451E-01 -.418E+03   -.284E+01 0.420E-01 0.418E+03   -.457E+00 -.224E-02 -.784E+00   -.106E-02 0.443E-04 -.681E-03
 -----------------------------------------------------------------------------------------------
   0.101E+01 0.414E-01 0.316E+02   0.400E-13 -.106E-12 -.443E-10   -.105E+01 -.609E-01 -.310E+02   0.403E-01 0.171E-01 -.676E+00
 
 
 POSITION                                       TOTAL-FORCE (eV/Angst)
 -----------------------------------------------------------------------------------
      1.26140      1.26140     12.31431        -0.020133     -0.018005     -0.040869
      1.26140      3.78419     12.31431        -0.010942     -0.001806     -0.021941
      1.26140      6.30699     12.31431        -0.017848      0.014765     -0.040990
      1.26140      8.82979     12.31431        -0.008533     -0.000563      0.048219
      3.78419      1.26140     12.31431         0.001348     -0.013702     -0.020112
      3.78419      3.78419     12.31431        -0.004091      0.000167      0.003083
      3.78419      6.30699     12.31431         0.004113      0.013867     -0.020294
      3.78419      8.82979     12.31431         0.004345      0.001263      0.003803
      6.30699      1.26140     12.31431        -0.000003     -0.022294     -0.029444
      6.30699      3.78419     12.31431        -0.007699     -0.000234     -0.004617
      6.30699      6.30699     12.31431         0.002017      0.021825     -0.029883
      6.30699      8.82979     12.31431         0.012870      0.001004      0.078215
      8.82979      1.26140     12.31431        -0.007249     -0.002726      0.018820
      8.82979      3.78419     12.31431        -0.007004     -0.001890      0.014270
      8.82979      6.30699     12.31431        -0.004769     -0.001508      0.018333
      8.82979      8.82979     12.31431        -0.024324     -0.000839      0.022756
     10.08784     10.09072     14.09562         0.001794     -0.001200      0.001173
     10.08498      2.51848     14.09314         0.001994      0.001727      0.001806
     10.08622      5.04698     14.09307         0.000701      0.001807      0.001349
     10.08907      7.56634     14.09529         0.000811      0.004143      0.002398
      2.52122      0.00135     14.09641         0.000761     -0.003624      0.001889
      2.51804      2.50935     14.07646         0.004731      0.003503      0.003852
      2.51910      5.05833     14.07621         0.003775     -0.001788      0.004137
      2.52263      7.56692     14.09598        -0.001218      0.004390      0.002483
      5.04183      0.00178     14.09975         0.001759     -0.003156      0.001499
      5.04654      2.51652     14.08518         0.002306      0.001588      0.004465
      5.04786      5.05277     14.08501         0.000738     -0.002726      0.004594
      5.04320      7.56803     14.09967         0.000684      0.001996      0.000958
      7.56615      0.00375     14.10163         0.000471     -0.001882      0.000342
      7.56070      2.52169     14.09486         0.002915      0.001436      0.001414
      7.56191      5.04540     14.09478         0.002081      0.000103      0.001292
      7.56730      7.56376     14.10112         0.000242      0.003418      0.001104
      1.26239      1.26937     15.92039         0.003146      0.006835      0.001379
      1.27797      3.78222     15.85916         0.007127      0.003110      0.003147
      1.26665      6.29585     15.91938        -0.001545     -0.002094      0.002183
      1.25964      8.82831     15.91018         0.001071      0.002477     -0.007858
      3.77140      1.28934     15.93419         0.003906      0.000765     -0.003136
      3.76894      3.78495     15.82737         0.002565     -0.000223     -0.004157
      3.77602      6.28184     15.93250        -0.001482     -0.003730     -0.002740
      3.77962      8.83119     15.90573        -0.001950     -0.000900     -0.006126
      6.28840      1.27313     15.92541         0.004938     -0.001161     -0.006613
      6.27862      3.78467     15.91792         0.004668     -0.000913     -0.010840
      6.29308      6.29658     15.92483        -0.000119     -0.000994     -0.006724
      6.30346      8.83042     15.91580         0.001319     -0.000583     -0.006534
      8.83291      1.27311     15.92644         0.006425      0.006372      0.000884
      8.82113      3.78197     15.89416         0.008916      0.002613      0.002385
      8.83659      6.29133     15.92564         0.003152     -0.001226      0.001635
      8.82696      8.82765     15.91379         0.001442      0.002870     -0.005680
     10.09058      0.00358     17.68524         0.000516      0.002683      0.000771
     10.08806      2.53465     17.71933        -0.001586     -0.003841      0.004386
      0.00102      5.03104     17.71734        -0.003095      0.001873      0.007309
      0.00145      7.56041     17.68490         0.000099      0.000213      0.000555
      2.51831      0.00091     17.68665         0.000017     -0.001242      0.001022
      2.50677      2.52651     17.76110         0.002989      0.000577      0.002076
      2.51176      5.04412     17.75849         0.001499     -0.001485      0.006024
      2.52032      7.56888     17.68565        -0.000334      0.000260      0.001718
      5.03847     10.08863     17.68776        -0.000361      0.000166      0.000188
      5.04755      2.51214     17.75808        -0.000327      0.004213     -0.005488
      5.05310      5.05909     17.75556        -0.003014     -0.001363     -0.003546
      5.04042      7.57316     17.68694         0.000164      0.000783      0.000500
      7.56521      0.00163     17.68734         0.001104      0.000644      0.001991
      7.56177      2.52822     17.68252         0.003247     -0.000753     -0.000470
      7.56633      5.03899     17.68249         0.000687      0.000585     -0.001488
      7.56710      7.56555     17.68786         0.001306     -0.001008      0.000212
      3.92741      3.79166     18.88797         0.006204     -0.001873     -0.014803
      3.85992      3.79715     20.12399         0.005947     -0.007305      0.017444
      1.04943      3.78285     18.38210         0.004719     -0.005401     -0.003706
 -----------------------------------------------------------------------------------
    total drift:                                0.001113     -0.002393     -0.018136


--------------------------------------------------------------------------------------------------------



  FREE ENERGIE OF THE ION-ELECTRON SYSTEM (eV)
  ---------------------------------------------------
  free  energy   TOTEN  =      -258.91173676 eV

  energy  without entropy=     -258.93414392  energy(sigma->0) =     -258.91920582
 
 d Force = 0.1650368E-04[ 0.180E-05, 0.312E-04]  d Energy = 0.2574829E-04-0.924E-05
 d Force =-0.1763027E+01[-0.176E+01,-0.176E+01]  d Ewald  =-0.1763027E+01-0.298E-07


--------------------------------------------------------------------------------------------------------


    POTLOK:  cpu time    0.2115: real time    0.2048


--------------------------------------------------------------------------------------------------------




--------------------------------------------------------------------------------------------------------


  
 reached required accuracy - stopping structural energy minimisation
 writing wavefunctions
     LOOP+:  cpu time  334.2709: real time  182.0621
    4ORBIT:  cpu time    0.0000: real time    0.0000
 


 total charge     
 
# of ion       s       p       d       tot
------------------------------------------
    1        0.452   0.279   9.207   9.938
    2        0.453   0.278   9.207   9.938
    3        0.452   0.279   9.207   9.938
    4        0.450   0.278   9.208   9.935
    5        0.456   0.278   9.207   9.941
    6        0.449   0.281   9.205   9.935
    7        0.456   0.278   9.207   9.941
    8        0.448   0.277   9.209   9.934
    9        0.451   0.278   9.208   9.937
   10        0.453   0.278   9.208   9.939
   11        0.451   0.278   9.208   9.937
   12        0.452   0.276   9.207   9.935
   13        0.453   0.277   9.207   9.937
   14        0.448   0.279   9.207   9.934
   15        0.453   0.277   9.207   9.937
   16        0.452   0.275   9.209   9.935
   17        0.453   0.398   9.177  10.028
   18        0.454   0.402   9.177  10.033
   19        0.454   0.402   9.177  10.033
   20        0.453   0.398   9.177  10.028
   21        0.452   0.400   9.176  10.028
   22        0.459   0.403   9.180  10.043
   23        0.459   0.403   9.180  10.043
   24        0.452   0.400   9.176  10.028
   25        0.451   0.398   9.177  10.026
   26        0.457   0.402   9.178  10.037
   27        0.457   0.402   9.178  10.037
   28        0.451   0.398   9.177  10.026
   29        0.451   0.396   9.177  10.024
   30        0.453   0.400   9.176  10.029
   31        0.453   0.400   9.176  10.029
   32        0.451   0.396   9.177  10.025
   33        0.451   0.402   9.174  10.027
   34        0.452   0.382   9.192  10.027
   35        0.451   0.402   9.174  10.027
   36        0.456   0.398   9.178  10.032
   37        0.447   0.401   9.174  10.023
   38        0.460   0.382   9.195  10.036
   39        0.447   0.401   9.174  10.023
   40        0.452   0.400   9.176  10.028
   41        0.452   0.401   9.174  10.027
   42        0.449   0.400   9.176  10.025
   43        0.452   0.402   9.174  10.028
   44        0.454   0.400   9.177  10.031
   45        0.454   0.402   9.172  10.029
   46        0.454   0.399   9.177  10.030
   47        0.454   0.403   9.172  10.029
   48        0.449   0.401   9.177  10.027
   49        0.451   0.279   9.208   9.937
   50        0.440   0.330   9.196   9.965
   51        0.440   0.330   9.195   9.966
   52        0.451   0.279   9.208   9.937
   53        0.452   0.280   9.208   9.940
   54        0.425   0.319   9.191   9.935
   55        0.425   0.321   9.191   9.937
   56        0.452   0.280   9.208   9.940
   57        0.451   0.280   9.209   9.941
   58        0.445   0.338   9.175   9.957
   59        0.445   0.339   9.174   9.959
   60        0.452   0.280   9.209   9.941
   61        0.450   0.276   9.210   9.936
   62        0.452   0.283   9.208   9.942
   63        0.452   0.283   9.208   9.943
   64        0.450   0.276   9.210   9.936
   65        1.284   2.360   0.000   3.644
   66        1.628   3.420   0.000   5.048
   67        0.492   0.017   0.000   0.509
--------------------------------------------------
tot         32.260  27.792 588.201 648.253
 


 magnetization (x)
 
# of ion       s       p       d       tot
------------------------------------------
    1       -0.000  -0.000   0.000   0.000
    2       -0.000   0.000  -0.000   0.000
    3       -0.000  -0.000   0.000   0.000
    4       -0.000   0.000  -0.000  -0.000
    5       -0.000   0.000   0.000   0.000
    6        0.000   0.000  -0.000   0.000
    7       -0.000   0.000  -0.000  -0.000
    8       -0.000  -0.000   0.000   0.000
    9       -0.000  -0.000   0.000  -0.000
   10       -0.000   0.000  -0.000  -0.000
   11       -0.000  -0.000   0.000  -0.000
   12       -0.000  -0.000  -0.000  -0.000
   13       -0.000   0.000  -0.000  -0.000
   14       -0.000   0.000   0.000   0.000
   15       -0.000   0.000  -0.000  -0.000
   16        0.000  -0.000   0.000   0.000
   17       -0.000   0.000   0.000   0.000
   18        0.000   0.000   0.000   0.000
   19       -0.000  -0.000   0.000   0.000
   20        0.000  -0.000   0.000   0.000
   21        0.000   0.000  -0.000  -0.000
   22        0.000  -0.000   0.000   0.000
   23        0.000   0.000   0.000   0.000
   24       -0.000   0.000  -0.000  -0.000
   25       -0.000   0.000   0.000   0.000
   26       -0.000   0.000   0.000   0.000
   27        0.000   0.000   0.000   0.000
   28        0.000  -0.000   0.000   0.000
   29        0.000   0.000   0.000   0.000
   30       -0.000   0.000  -0.000  -0.000
   31        0.000   0.000   0.000   0.000
   32       -0.000   0.000   0.000   0.000
   33       -0.000  -0.000   0.000  -0.000
   34        0.000  -0.000  -0.000   0.000
   35        0.000  -0.000   0.000   0.000
   36        0.000  -0.000   0.000  -0.000
   37       -0.000  -0.000  -0.000  -0.000
   38       -0.000  -0.000  -0.000  -0.000
   39       -0.000  -0.000  -0.000  -0.000
   40       -0.000  -0.000   0.000   0.000
   41        0.000  -0.000   0.000   0.000
   42       -0.000  -0.000  -0.000  -0.000
   43       -0.000  -0.000   0.000  -0.000
   44       -0.000  -0.000  -0.000  -0.000
   45       -0.000  -0.000   0.000  -0.000
   46       -0.000  -0.000   0.000  -0.000
   47        0.000  -0.000  -0.000   0.000
   48       -0.000  -0.000   0.000   0.000
   49        0.000  -0.000   0.000   0.000
   50       -0.000  -0.000   0.000   0.000
   51       -0.000  -0.000   0.000   0.000
   52        0.000  -0.000   0.000   0.000
   53        0.000  -0.000   0.000   0.000
   54        0.000  -0.000  -0.000  -0.000
   55        0.000  -0.000  -0.000  -0.000
   56        0.000   0.000   0.000   0.000
   57        0.000   0.000   0.000   0.000
   58        0.000  -0.000  -0.000  -0.000
   59        0.000  -0.000   0.000  -0.000
   60        0.000  -0.000   0.000   0.000
   61        0.000  -0.000   0.000   0.000
   62        0.000  -0.000   0.000   0.000
   63        0.000  -0.000  -0.000  -0.000
   64        0.000  -0.000   0.000   0.000
   65        0.000  -0.000   0.000  -0.000
   66        0.000  -0.000   0.000  -0.000
   67        0.000  -0.000   0.000   0.000
--------------------------------------------------
tot          0.000  -0.000   0.000  -0.000
 

 total amount of memory used by VASP MPI-rank0   256609. kBytes
=======================================================================

   base      :      30000. kBytes
   nonlr-proj:      56868. kBytes
   fftplans  :       7344. kBytes
   grid      :      87570. kBytes
   one-center:       2083. kBytes
   wavefun   :      72744. kBytes
 
  
  
 General timing and accounting informations for this job:
 ========================================================
  
                  Total CPU time used (sec):     1628.272
                            User time (sec):     1562.951
                          System time (sec):       65.320
                         Elapsed time (sec):      880.920
  
                   Maximum memory used (kb):      746840.
                   Average memory used (kb):           0.
  
                          Minor page faults:       396542
                          Major page faults:           24
                 Voluntary context switches:        19002
