 vasp.5.4.4.18Apr17-6-g9f103f2a35 (build Jun 11 2020 13:42:08) complex          
  
 executed on             LinuxIFC date 2022.03.18  15:52:38
 running on  120 total cores
 each image running on   20 cores
 distrk:  each k-point on   20 cores,    1 groups
 distr:  one band on NCORES_PER_BAND=  10 cores,    2 groups


--------------------------------------------------------------------------------------------------------


 INCAR:
 POTCAR:    PAW_PBE N 08Apr2002                   
 POTCAR:    PAW_PBE O 08Apr2002                   
 POTCAR:    PAW_PBE Pd 04Jan2005                  

 ----------------------------------------------------------------------------- 
|                                                                             |
|           W    W    AA    RRRRR   N    N  II  N    N   GGGG   !!!           |
|           W    W   A  A   R    R  NN   N  II  NN   N  G    G  !!!           |
|           W    W  A    A  R    R  N N  N  II  N N  N  G       !!!           |
|           W WW W  AAAAAA  RRRRR   N  N N  II  N  N N  G  GGG   !            |
|           WW  WW  A    A  R   R   N   NN  II  N   NN  G    G                |
|           W    W  A    A  R    R  N    N  II  N    N   GGGG   !!!           |
|                                                                             |
|      For optimal performance we recommend to set                            |
|        NCORE= 4 - approx SQRT( number of cores)                             |
|      NCORE specifies how many cores store one orbital (NPAR=cpu/NCORE).     |
|      This setting can  greatly improve the performance of VASP for DFT.     |
|      The default,   NCORE=1            might be grossly inefficient         |
|      on modern multi-core architectures or massively parallel machines.     |
|      Do your own testing !!!!                                               |
|      Unfortunately you need to use the default for GW and RPA calculations. |
|      (for HF NCORE is supported but not extensively tested yet)             |
|                                                                             |
 ----------------------------------------------------------------------------- 

 POTCAR:    PAW_PBE N 08Apr2002                   
   VRHFIN =N: s2p3                                                              
   LEXCH  = PE                                                                  
   EATOM  =   264.5486 eV,   19.4438 Ry                                         
                                                                                
   TITEL  = PAW_PBE N 08Apr2002                                                 
   LULTRA =        F    use ultrasoft PP ?                                      
   IUNSCR =        1    unscreen: 0-lin 1-nonlin 2-no                           
   RPACOR =    1.200    partial core radius                                     
   POMASS =   14.001; ZVAL   =    5.000    mass and valenz                      
   RCORE  =    1.500    outmost cutoff radius                                   
   RWIGS  =    1.400; RWIGS  =    0.741    wigner-seitz radius (au A)           
   ENMAX  =  400.000; ENMIN  =  300.000 eV                                      
   ICORE  =        2    local potential                                         
   LCOR   =        T    correct aug charges                                     
   LPAW   =        T    paw PP                                                  
   EAUG   =  627.112                                                            
   DEXC   =    0.000                                                            
   RMAX   =    1.529    core radius for proj-oper                               
   RAUG   =    1.300    factor for augmentation sphere                          
   RDEP   =    1.514    radius for radial grids                                 
   RDEPT  =    1.338    core radius for aug-charge                              
                                                                                
   Atomic configuration                                                         
    4 entries                                                                   
     n  l   j            E        occ.                                          
     1  0  0.50      -384.7179   2.0000                                         
     2  0  0.50       -18.5828   2.0000                                         
     2  1  0.50        -7.0898   3.0000                                         
     3  2  1.50        -6.8029   0.0000                                         
   Description                                                                  
     l       E           TYP  RCUT    TYP  RCUT                                 
     0    -18.5828119     23  1.200                                             
     0    -13.5018863     23  1.200                                             
     1     -7.0897853     23  1.500                                             
     1      9.5240782     23  1.500                                             
     2     -6.8029130      7  1.500                                             
  local pseudopotential read in
  partial core-charges read in
  partial kinetic energy density read in
  atomic valenz-charges read in
  non local Contribution for L=           0  read in
    real space projection operators read in
  non local Contribution for L=           0  read in
    real space projection operators read in
  non local Contribution for L=           1  read in
    real space projection operators read in
  non local Contribution for L=           1  read in
    real space projection operators read in
    PAW grid and wavefunctions read in
 
   number of l-projection  operators is LMAX  =           4
   number of lm-projection operators is LMMAX =           8
 
 POTCAR:    PAW_PBE O 08Apr2002                   
   VRHFIN =O: s2p4                                                              
   LEXCH  = PE                                                                  
   EATOM  =   432.3788 eV,   31.7789 Ry                                         
                                                                                
   TITEL  = PAW_PBE O 08Apr2002                                                 
   LULTRA =        F    use ultrasoft PP ?                                      
   IUNSCR =        1    unscreen: 0-lin 1-nonlin 2-no                           
   RPACOR =    1.200    partial core radius                                     
   POMASS =   16.000; ZVAL   =    6.000    mass and valenz                      
   RCORE  =    1.520    outmost cutoff radius                                   
   RWIGS  =    1.550; RWIGS  =    0.820    wigner-seitz radius (au A)           
   ENMAX  =  400.000; ENMIN  =  300.000 eV                                      
   ICORE  =        2    local potential                                         
   LCOR   =        T    correct aug charges                                     
   LPAW   =        T    paw PP                                                  
   EAUG   =  605.392                                                            
   DEXC   =    0.000                                                            
   RMAX   =    1.553    core radius for proj-oper                               
   RAUG   =    1.300    factor for augmentation sphere                          
   RDEP   =    1.550    radius for radial grids                                 
   RDEPT  =    1.329    core radius for aug-charge                              
                                                                                
   Atomic configuration                                                         
    4 entries                                                                   
     n  l   j            E        occ.                                          
     1  0  0.50      -514.6923   2.0000                                         
     2  0  0.50       -23.9615   2.0000                                         
     2  1  0.50        -9.0305   4.0000                                         
     3  2  1.50        -9.5241   0.0000                                         
   Description                                                                  
     l       E           TYP  RCUT    TYP  RCUT                                 
     0    -23.9615318     23  1.200                                             
     0     -9.5240782     23  1.200                                             
     1     -9.0304911     23  1.520                                             
     1      8.1634956     23  1.520                                             
     2     -9.5240782      7  1.500                                             
  local pseudopotential read in
  partial core-charges read in
  partial kinetic energy density read in
  kinetic energy density of atom read in
  atomic valenz-charges read in
  non local Contribution for L=           0  read in
    real space projection operators read in
  non local Contribution for L=           0  read in
    real space projection operators read in
  non local Contribution for L=           1  read in
    real space projection operators read in
  non local Contribution for L=           1  read in
    real space projection operators read in
    PAW grid and wavefunctions read in
 
   number of l-projection  operators is LMAX  =           4
   number of lm-projection operators is LMMAX =           8
 
 POTCAR:    PAW_PBE Pd 04Jan2005                  
   VRHFIN =Pd : s1 d9                                                           
   LEXCH  = PE                                                                  
   EATOM  =   809.7530 eV,   59.5152 Ry                                         
                                                                                
   TITEL  = PAW_PBE Pd 04Jan2005                                                
   LULTRA =        F    use ultrasoft PP ?                                      
   IUNSCR =        1    unscreen: 0-lin 1-nonlin 2-no                           
   RPACOR =    2.000    partial core radius                                     
   POMASS =  106.420; ZVAL   =   10.000    mass and valenz                      
   RCORE  =    2.600    outmost cutoff radius                                   
   RWIGS  =    2.710; RWIGS  =    1.434    wigner-seitz radius (au A)           
   ENMAX  =  250.925; ENMIN  =  188.194 eV                                      
   ICORE  =        3    local potential                                         
   LCOR   =        T    correct aug charges                                     
   LPAW   =        T    paw PP                                                  
   EAUG   =  416.230                                                            
   DEXC   =    0.000                                                            
   RMAX   =    2.653    core radius for proj-oper                               
   RAUG   =    1.300    factor for augmentation sphere                          
   RDEP   =    2.734    radius for radial grids                                 
   RDEPT  =    2.103    core radius for aug-charge                              
                                                                                
   Atomic configuration                                                         
   12 entries                                                                   
     n  l   j            E        occ.                                          
     1  0  0.50    -24164.6631   2.0000                                         
     2  0  0.50     -3530.9218   2.0000                                         
     2  1  1.50     -3165.6822   6.0000                                         
     3  0  0.50      -639.4577   2.0000                                         
     3  1  1.50      -519.4532   6.0000                                         
     3  2  2.50      -328.9757  10.0000                                         
     4  0  0.50       -88.7014   2.0000                                         
     4  1  1.50       -54.4540   6.0000                                         
     4  2  2.50        -6.6878   9.0000                                         
     5  0  0.50        -4.3543   1.0000                                         
     5  1  0.50        -1.3606   0.0000                                         
     4  3  2.50        -1.3606   0.0000                                         
   Description                                                                  
     l       E           TYP  RCUT    TYP  RCUT                                 
     2     -6.6878251     23  2.400                                             
     2     -8.0484077     23  2.400                                             
     0     -4.3542939     23  2.400                                             
     0      4.3406793     23  2.400                                             
     1     -4.0817478     23  2.600                                             
     1     15.8380318     23  2.600                                             
     3     -4.0817478     23  2.400                                             
  local pseudopotential read in
  partial core-charges read in
  partial kinetic energy density read in
  atomic valenz-charges read in
  non local Contribution for L=           2  read in
    real space projection operators read in
  non local Contribution for L=           2  read in
    real space projection operators read in
  non local Contribution for L=           0  read in
    real space projection operators read in
  non local Contribution for L=           0  read in
    real space projection operators read in
  non local Contribution for L=           1  read in
    real space projection operators read in
  non local Contribution for L=           1  read in
    real space projection operators read in
    PAW grid and wavefunctions read in
 
   number of l-projection  operators is LMAX  =           6
   number of lm-projection operators is LMMAX =          18
 
 Optimization of the real space projectors (new method)

 maximal supplied QI-value         = 25.13
 optimisation between [QCUT,QGAM] = [ 10.05, 20.36] = [ 28.30,116.06] Ry 
 Optimized for a Real-space Cutoff    1.70 Angstroem

   l    n(q)    QCUT    max X(q) W(low)/X(q) W(high)/X(q)  e(spline) 
   0     10    10.053    79.467    0.61E-04    0.98E-04    0.61E-06
   0     10    10.053    66.151    0.60E-04    0.98E-04    0.61E-06
   1     10    10.053     8.350    0.17E-03    0.71E-03    0.45E-05
   1     10    10.053     5.531    0.18E-03    0.77E-03    0.49E-05
 Optimization of the real space projectors (new method)

 maximal supplied QI-value         = 24.76
 optimisation between [QCUT,QGAM] = [ 10.15, 20.30] = [ 28.85,115.39] Ry 
 Optimized for a Real-space Cutoff    1.51 Angstroem

   l    n(q)    QCUT    max X(q) W(low)/X(q) W(high)/X(q)  e(spline) 
   0      9    10.150    20.381    0.17E-03    0.18E-03    0.41E-06
   0      9    10.150    15.268    0.18E-03    0.20E-03    0.43E-06
   1      9    10.150     5.964    0.16E-03    0.20E-03    0.36E-06
   1      9    10.150     5.382    0.13E-03    0.16E-03    0.33E-06
 Optimization of the real space projectors (new method)

 maximal supplied QI-value         = 14.36
 optimisation between [QCUT,QGAM] = [ 10.20, 20.39] = [ 29.12,116.47] Ry 
 Optimized for a Real-space Cutoff    1.55 Angstroem

   l    n(q)    QCUT    max X(q) W(low)/X(q) W(high)/X(q)  e(spline) 
   2      9    10.197    59.108    0.12E-03    0.40E-04    0.11E-06
   2      9    10.197    58.101    0.12E-03    0.39E-04    0.12E-06
   0      9    10.197   102.235    0.41E-04    0.86E-05    0.83E-07
   0      9    10.197    58.388    0.37E-04    0.79E-05    0.78E-07
   1      9    10.197    22.191    0.25E-03    0.13E-03    0.84E-07
   1      9    10.197    15.590    0.21E-03    0.11E-03    0.74E-07
  PAW_PBE N 08Apr2002                   :
 energy of atom  1       EATOM= -264.5486
 kinetic energy error for atom=    0.0736 (will be added to EATOM!!)
  PAW_PBE O 08Apr2002                   :
 energy of atom  2       EATOM= -432.3788
 kinetic energy error for atom=    0.1156 (will be added to EATOM!!)
  PAW_PBE Pd 04Jan2005                  :
 energy of atom  3       EATOM= -809.7530
 kinetic energy error for atom=    0.0091 (will be added to EATOM!!)
 
 
 POSCAR: N O Pd                                  
  positions in direct lattice
  velocities in cartesian coordinates
 exchange correlation table for  LEXCH =        8
   RHO(1)=    0.500       N(1)  =     2000
   RHO(2)=  100.500       N(2)  =     4000

 VTST: version 3.1, (03/28/14)

 CHAIN: initializing optimizer
 
 OPT: Using VASP QUASI-newton optimizer
 CHAIN: Read ICHAIN            0
 CHAIN: Running the NEB
 NEB:          SPRING     -5.000000
 NEB:          LCLIMB      T
 NEB:     LTANGENTOLD      F
 NEB:           LDNEB      F
 NEB:        LDNEBORG      F
 NEB:        LNEBCELL      F
 NEB:          EFIRST   -487.201058
 NEB:           ELAST   -487.434358
 
 POSCAR: N O Pd                                  
  positions in direct lattice
  No initial velocities read in
 
 POSCAR: N O Pd                                  
  positions in direct lattice
  No initial velocities read in
 


--------------------------------------------------------------------------------------------------------


 ion  position               nearest neighbor table
   1  0.365  0.275  0.640-  75 1.87  79 1.89
   2  0.374  0.005  0.651-  12 1.19  78 1.99  74 1.99
   3  0.315  0.438  0.664-  13 1.19  76 2.07
   4  0.745  0.378  0.651-  14 1.19  84 1.98  83 1.99
   5  0.653  0.095  0.645-  15 1.21  82 2.02  78 2.23  83 2.24
   6  0.650  0.654  0.643-  16 1.21  85 2.04  81 2.22  84 2.25
   7  0.007  0.375  0.651-  17 1.19  72 1.98  71 1.99
   8  0.093  0.091  0.645-  18 1.20  70 2.01  74 2.24  71 2.27
   9  0.095  0.656  0.645-  19 1.21  73 2.02  77 2.23  72 2.23
  10  0.872  0.873  0.641-  20 1.21  85 2.21  73 2.25  82 2.25  70 2.25
  11  0.375  0.752  0.649-  21 1.19  77 1.98  81 1.99
  12  0.373  0.017  0.690-   2 1.19
  13  0.396  0.485  0.684-   3 1.19
  14  0.714  0.381  0.689-   4 1.19
  15  0.659  0.088  0.685-   5 1.21
  16  0.652  0.658  0.683-   6 1.21
  17  0.033  0.375  0.689-   7 1.19
  18  0.086  0.085  0.685-   8 1.20
  19  0.089  0.663  0.685-   9 1.21
  20  0.872  0.873  0.681-  10 1.21
  21  0.377  0.736  0.689-  11 1.19
  22  0.125  0.125  0.403-  43 2.74  25 2.74  23 2.75  34 2.75  26 2.75  38 2.75  42 2.77  39 2.78

  23  0.125  0.375  0.403-  35 2.75  44 2.75  22 2.75  27 2.75  24 2.75  43 2.75  40 2.77  39 2.77

  24  0.125  0.625  0.403-  44 2.73  36 2.75  28 2.75  25 2.75  23 2.75  41 2.75  40 2.77  45 2.78

  25  0.125  0.875  0.403-  22 2.74  29 2.75  37 2.75  24 2.75  38 2.76  45 2.76  42 2.76  41 2.76

  26  0.375  0.125  0.403-  29 2.74  27 2.75  22 2.75  30 2.75  47 2.75  43 2.75  46 2.76  42 2.77

  27  0.375  0.375  0.403-  26 2.75  23 2.75  31 2.75  28 2.75  47 2.75  44 2.76  43 2.76  48 2.77

  28  0.375  0.625  0.403-  44 2.74  48 2.74  24 2.75  29 2.75  32 2.75  27 2.75  49 2.77  45 2.78

  29  0.375  0.875  0.403-  49 2.74  26 2.74  25 2.75  33 2.75  28 2.75  46 2.76  45 2.76  42 2.76

  30  0.625  0.125  0.403-  47 2.74  50 2.74  31 2.74  33 2.75  34 2.75  26 2.75  46 2.77  51 2.78

  31  0.625  0.375  0.403-  30 2.74  47 2.75  35 2.75  27 2.75  32 2.75  48 2.75  51 2.77  52 2.77

  32  0.625  0.625  0.403-  48 2.72  36 2.75  31 2.75  28 2.75  33 2.75  53 2.76  52 2.78  49 2.78

  33  0.625  0.875  0.403-  30 2.75  29 2.75  37 2.75  32 2.75  49 2.75  53 2.75  50 2.76  46 2.77

  34  0.875  0.125  0.403-  35 2.74  37 2.75  22 2.75  30 2.75  38 2.75  50 2.75  39 2.76  51 2.77

  35  0.875  0.375  0.403-  52 2.74  34 2.74  23 2.75  31 2.75  36 2.75  39 2.75  51 2.76  40 2.76

  36  0.875  0.625  0.403-  24 2.75  32 2.75  35 2.75  37 2.75  52 2.75  53 2.76  41 2.76  40 2.77

  37  0.875  0.875  0.403-  34 2.75  25 2.75  33 2.75  36 2.75  53 2.75  38 2.75  41 2.77  50 2.77

  38  1.000  0.000  0.468-  69 2.74  34 2.75  42 2.75  54 2.75  39 2.75  22 2.75  37 2.75  50 2.75
                            25 2.76  41 2.76  57 2.79  66 2.81
  39  0.998  0.251  0.468-  51 2.72  40 2.73  55 2.74  43 2.75  38 2.75  66 2.75  35 2.75  34 2.76
                            54 2.77  23 2.77  22 2.78  67 2.85
  40  0.999  0.499  0.468-  52 2.71  55 2.72  39 2.73  44 2.74  68 2.74  41 2.75  35 2.76  36 2.77
                            23 2.77  24 2.77  56 2.79  67 2.85
  41  0.001  0.749  0.468-  45 2.74  40 2.75  24 2.75  53 2.75  69 2.75  38 2.76  25 2.76  36 2.76
                            37 2.77  68 2.78  57 2.78  56 2.78
  42  0.250  0.999  0.468-  45 2.71  58 2.72  46 2.74  57 2.75  43 2.75  38 2.75  25 2.76  29 2.76
                            22 2.77  26 2.77  54 2.78  61 2.84
  43  0.249  0.249  0.468-  59 2.72  22 2.74  39 2.75  42 2.75  23 2.75  26 2.75  58 2.76  27 2.76
                            55 2.76  47 2.77  44 2.77  54 2.79
  44  0.249  0.502  0.467-  59 2.70  24 2.73  40 2.74  28 2.74  23 2.75  45 2.75  60 2.76  27 2.76
                            55 2.77  43 2.77  48 2.78  56 2.78
  45  0.250  0.752  0.468-  60 2.70  42 2.71  49 2.74  41 2.74  57 2.74  44 2.75  29 2.76  25 2.76
                            28 2.78  24 2.78  56 2.79  61 2.84
  46  0.499  1.000  0.468-  58 2.71  49 2.71  65 2.73  42 2.74  47 2.74  50 2.74  29 2.76  26 2.76
                            33 2.77  30 2.77  62 2.80  61 2.85
  47  0.501  0.249  0.467-  59 2.72  30 2.74  46 2.74  31 2.75  26 2.75  51 2.75  27 2.75  58 2.76
                            63 2.76  43 2.77  48 2.78  62 2.78
  48  0.502  0.502  0.467-  59 2.70  32 2.72  28 2.74  31 2.75  49 2.75  52 2.75  63 2.77  27 2.77
                            60 2.77  47 2.78  64 2.78  44 2.78
  49  0.499  0.753  0.468-  46 2.71  60 2.72  45 2.74  29 2.74  65 2.75  48 2.75  33 2.75  53 2.76
                            64 2.76  28 2.77  32 2.78  61 2.84
  50  0.749  0.002  0.468-  51 2.74  46 2.74  30 2.74  69 2.75  38 2.75  53 2.75  34 2.75  33 2.76
                            37 2.77  65 2.77  62 2.79  66 2.79
  51  0.751  0.251  0.468-  63 2.70  39 2.72  52 2.73  66 2.74  50 2.74  47 2.75  35 2.76  34 2.77
                            31 2.77  30 2.78  62 2.78  67 2.85
  52  0.753  0.500  0.468-  40 2.71  63 2.73  51 2.73  35 2.74  36 2.75  68 2.75  48 2.75  53 2.76
                            64 2.76  31 2.77  32 2.78  67 2.85
  53  0.750  0.751  0.468-  64 2.71  69 2.74  37 2.75  41 2.75  33 2.75  50 2.75  52 2.76  49 2.76
                            36 2.76  32 2.76  65 2.80  68 2.80
  54  0.122  0.123  0.534-  75 2.70  66 2.73  57 2.73  38 2.75  39 2.77  55 2.77  42 2.78  58 2.78
                            43 2.79  70 2.82  74 2.82  71 2.82
  55  0.123  0.376  0.533-  75 2.69  40 2.72  67 2.73  56 2.73  39 2.74  43 2.76  44 2.77  59 2.77
                            54 2.77  76 2.88  72 2.88  71 2.92
  56  0.125  0.625  0.535-  68 2.73  60 2.73  55 2.73  57 2.75  77 2.78  41 2.78  44 2.78  40 2.79
                            72 2.79  45 2.79  73 2.81  76 2.87
  57  0.127  0.875  0.534-  61 2.72  54 2.73  45 2.74  56 2.75  42 2.75  69 2.78  41 2.78  38 2.79
                            73 2.80  70 2.80  74 2.86  77 2.87
  58  0.375  0.122  0.532-  46 2.71  61 2.71  42 2.72  62 2.74  75 2.75  43 2.76  47 2.76  54 2.78
                            59 2.81  79 2.85  78 2.88  74 2.93
  59  0.375  0.378  0.530-  44 2.70  48 2.70  47 2.72  43 2.72  80 2.74  60 2.75  55 2.77  79 2.77
                            75 2.78  63 2.78  76 2.79  58 2.81
  60  0.374  0.629  0.532-  45 2.70  80 2.71  61 2.72  49 2.72  56 2.73  59 2.75  44 2.76  48 2.77
                            64 2.81  76 2.82  77 2.89  81 2.90
  61  0.374  0.876  0.538-  58 2.71  57 2.72  60 2.72  65 2.72  81 2.83  42 2.84  45 2.84  49 2.84
                            46 2.85  74 2.86  77 2.87  78 2.88
  62  0.625  0.127  0.535-  63 2.73  65 2.73  66 2.74  58 2.74  47 2.78  51 2.78  50 2.79  78 2.79
                            46 2.80  83 2.80  82 2.80  79 2.82
  63  0.628  0.375  0.532-  80 2.70  51 2.70  67 2.72  62 2.73  52 2.73  47 2.76  48 2.77  79 2.77
                            59 2.78  64 2.80  83 2.90  84 2.92
  64  0.629  0.629  0.533-  80 2.67  53 2.71  68 2.72  65 2.73  49 2.76  52 2.76  48 2.78  85 2.80
                            63 2.80  60 2.81  81 2.84  84 2.85
  65  0.621  0.878  0.534-  61 2.72  64 2.73  46 2.73  62 2.73  49 2.75  50 2.77  69 2.78  82 2.79
                            53 2.80  85 2.81  81 2.84  78 2.89
  66  0.874  0.129  0.534-  67 2.71  54 2.73  62 2.74  51 2.74  39 2.75  69 2.78  50 2.79  70 2.80
                            82 2.80  38 2.81  71 2.86  83 2.89
  67  0.876  0.375  0.538-  66 2.71  68 2.71  63 2.72  55 2.73  84 2.84  39 2.85  40 2.85  51 2.85
                            52 2.85  71 2.86  72 2.88  83 2.88
  68  0.877  0.622  0.534-  67 2.71  64 2.72  56 2.73  40 2.74  52 2.75  41 2.78  73 2.79  69 2.79
                            53 2.80  85 2.81  84 2.86  72 2.89
  69  0.875  0.876  0.532-  53 2.74  38 2.74  50 2.75  41 2.75  70 2.76  85 2.77  57 2.78  65 2.78
                            66 2.78  73 2.79  68 2.79  82 2.79
  70  0.994  0.996  0.600-   8 2.01  10 2.25  73 2.67  82 2.67  74 2.72  71 2.73  69 2.76  66 2.80
                            57 2.80  54 2.82
  71  0.005  0.243  0.605-   7 1.99   8 2.27  75 2.69  70 2.73  54 2.82  67 2.86  66 2.86  72 2.88
                            83 2.91  55 2.92
  72  0.010  0.506  0.605-   7 1.98   9 2.23  73 2.73  76 2.77  56 2.79  67 2.88  71 2.88  55 2.88
                            68 2.89  84 2.91
  73  0.996  0.753  0.600-   9 2.02  10 2.25  70 2.67  85 2.67  77 2.72  72 2.73  68 2.79  69 2.79
                            57 2.80  56 2.81
  74  0.242  0.005  0.605-   2 1.99   8 2.24  70 2.72  75 2.72  54 2.82  57 2.86  61 2.86  78 2.89
                            77 2.89  58 2.93
  75  0.248  0.252  0.595-   1 1.87  71 2.69  76 2.69  55 2.69  54 2.70  79 2.72  74 2.72  58 2.75
                            59 2.78
  76  0.262  0.496  0.601-   3 2.07  80 2.66  75 2.69  77 2.71  72 2.77  59 2.79  60 2.82  56 2.87
                            55 2.88
  77  0.243  0.742  0.605-  11 1.98   9 2.23  76 2.71  73 2.72  56 2.78  57 2.87  61 2.87  81 2.89
                            60 2.89  74 2.89
  78  0.505  0.010  0.605-   2 1.99   5 2.23  82 2.72  79 2.77  62 2.79  61 2.88  58 2.88  74 2.89
                            65 2.89  81 2.89
  79  0.495  0.262  0.599-   1 1.89  80 2.66  83 2.71  75 2.72  78 2.77  59 2.77  63 2.77  62 2.82
                            58 2.85
  80  0.503  0.503  0.593-  79 2.66  76 2.66  64 2.67  84 2.68  81 2.70  63 2.70  60 2.71  59 2.74

  81  0.506  0.747  0.604-  11 1.99   6 2.22  80 2.70  85 2.72  61 2.83  64 2.84  65 2.84  77 2.89
                            78 2.89  60 2.90
  82  0.752  0.998  0.601-   5 2.02  10 2.25  70 2.67  85 2.67  78 2.72  83 2.73  69 2.79  65 2.79
                            66 2.80  62 2.80
  83  0.740  0.245  0.606-   4 1.99   5 2.24  79 2.71  82 2.73  62 2.80  84 2.87  67 2.88  66 2.89
                            63 2.90  71 2.91
  84  0.746  0.507  0.605-   4 1.98   6 2.25  80 2.68  85 2.72  67 2.84  64 2.85  68 2.86  83 2.87
                            72 2.91  63 2.92
  85  0.753  0.754  0.600-   6 2.04  10 2.21  73 2.67  82 2.67  81 2.72  84 2.72  69 2.77  64 2.80
                            65 2.81  68 2.81
 
  LATTYP: Found a simple tetragonal cell.
 ALAT       =    10.9820000000
 C/A-ratio  =     2.7317428519
  
  Lattice vectors:
  
 A1 = (  10.9820000000,   0.0000000000,   0.0000000000)
 A2 = (   0.0000000000,  10.9820000000,   0.0000000000)
 A3 = (   0.0000000000,   0.0000000000,  30.0000000000)


Analysis of symmetry for initial positions (statically):
=====================================================================
 Subroutine PRICEL returns:
 Original cell was already a primitive cell.
 

 Routine SETGRP: Setting up the symmetry group for a 
 simple tetragonal supercell.


 Subroutine GETGRP returns: Found  1 space group operations
 (whereof  1 operations were pure point group operations)
 out of a pool of 16 trial point group operations.


The static configuration has the point symmetry C_1 .


Analysis of symmetry for dynamics (positions and initial velocities):
=====================================================================
 Subroutine PRICEL returns:
 Original cell was already a primitive cell.
 

 Routine SETGRP: Setting up the symmetry group for a 
 simple tetragonal supercell.


 Subroutine GETGRP returns: Found  1 space group operations
 (whereof  1 operations were pure point group operations)
 out of a pool of 16 trial point group operations.


The dynamic configuration has the point symmetry C_1 .


Analysis of constrained symmetry for selective dynamics:
=====================================================================
 Subroutine PRICEL returns:
 Original cell was already a primitive cell.
 

 Routine SETGRP: Setting up the symmetry group for a 
 simple tetragonal supercell.


 Subroutine GETGRP returns: Found  1 space group operations
 (whereof  1 operations were pure point group operations)
 out of a pool of 16 trial point group operations.


The constrained configuration has the point symmetry C_1 .


Analysis of structural, dynamic, and magnetic symmetry:
=====================================================================
 Subroutine PRICEL returns:
 Original cell was already a primitive cell.
 

 Routine SETGRP: Setting up the symmetry group for a 
 simple tetragonal supercell.


 Subroutine GETGRP returns: Found  1 space group operations
 (whereof  1 operations were pure point group operations)
 out of a pool of 16 trial point group operations.


The magnetic configuration has the point symmetry C_1 .


 Subroutine INISYM returns: Found  1 space group operations
 (whereof  1 operations are pure point group operations),
 and found     1 'primitive' translations

 
 
 KPOINTS: K-Point Grid                            

Automatic generation of k-mesh.
Space group operators:
 irot       det(A)        alpha          n_x          n_y          n_z        tau_x        tau_y        tau_z
    1     1.000000     0.000001     1.000000     0.000000     0.000000     0.000000     0.000000     0.000000
 
 Subroutine IBZKPT returns following result:
 ===========================================
 
 Found      8 irreducible k-points:
 
 Following reciprocal coordinates:
            Coordinates               Weight
  0.125000  0.125000  0.000000      2.000000
  0.375000  0.125000  0.000000      2.000000
 -0.375000  0.125000  0.000000      2.000000
 -0.125000  0.125000  0.000000      2.000000
  0.125000  0.375000  0.000000      2.000000
  0.375000  0.375000  0.000000      2.000000
 -0.375000  0.375000  0.000000      2.000000
 -0.125000  0.375000  0.000000      2.000000
 
 Following cartesian coordinates:
            Coordinates               Weight
  0.011382  0.011382  0.000000      2.000000
  0.034147  0.011382  0.000000      2.000000
 -0.034147  0.011382  0.000000      2.000000
 -0.011382  0.011382  0.000000      2.000000
  0.011382  0.034147  0.000000      2.000000
  0.034147  0.034147  0.000000      2.000000
 -0.034147  0.034147  0.000000      2.000000
 -0.011382  0.034147  0.000000      2.000000
 


--------------------------------------------------------------------------------------------------------




 Dimension of arrays:
   k-points           NKPTS =      8   k-points in BZ     NKDIM =      8   number of bands    NBANDS=    496
   number of dos      NEDOS =   1200   number of ions     NIONS =     85
   non local maximal  LDIM  =      6   non local SUM 2l+1 LMDIM =     18
   total plane-waves  NPLWV = ******
   max r-space proj   IRMAX =   5807   max aug-charges    IRDMAX=  13820
   dimension x,y,z NGX =    72 NGY =   72 NGZ =  196
   dimension x,y,z NGXF=   144 NGYF=  144 NGZF=  392
   support grid    NGXF=   144 NGYF=  144 NGZF=  392
   ions per type =              11  10  64
   NGX,Y,Z   is equivalent  to a cutoff of  10.90, 10.90, 10.86 a.u.
   NGXF,Y,Z  is equivalent  to a cutoff of  21.80, 21.80, 21.72 a.u.

 SYSTEM =  Pd_111_surface                          
 POSCAR =  N O Pd                                  

 Startparameter for this run:
   NWRITE =      2    write-flag & timer
   PREC   = accura    normal or accurate (medium, high low for compatibility)
   ISTART =      0    job   : 0-new  1-cont  2-samecut
   ICHARG =      2    charge: 1-file 2-atom 10-const
   ISPIN  =      2    spin polarized calculation?
   LNONCOLLINEAR =      F non collinear calculations
   LSORBIT =      F    spin-orbit coupling
   INIWAV =      1    electr: 0-lowe 1-rand  2-diag
   LASPH  =      F    aspherical Exc in radial PAW
   METAGGA=      F    non-selfconsistent MetaGGA calc.

 Electronic Relaxation 1
   ENCUT  =  400.0 eV  29.40 Ry    5.42 a.u.  17.91 17.91 48.92*2*pi/ulx,y,z
   ENINI  =  400.0     initial cutoff
   ENAUG  =  627.1 eV  augmentation charge cutoff
   NELM   =    100;   NELMIN=  2; NELMDL= -5     # of ELM steps 
   EDIFF  = 0.1E-04   stopping-criterion for ELM
   LREAL  =      T    real-space projection
   NLSPLINE    = F    spline interpolate recip. space projectors
   LCOMPAT=      F    compatible to vasp.4.4
   GGA_COMPAT  = T    GGA compatible to vasp.4.4-vasp.4.6
   LMAXPAW     = -100 max onsite density
   LMAXMIX     =    2 max onsite mixed and CHGCAR
   VOSKOWN=      0    Vosko Wilk Nusair interpolation
   ROPT   =   -0.00025  -0.00025  -0.00025
 Ionic relaxation
   EDIFFG = -.5E-01   stopping-criterion for IOM
   NSW    =    300    number of steps for IOM
   NBLOCK =      1;   KBLOCK =    300    inner block; outer block 
   IBRION =      1    ionic relax: 0-MD 1-quasi-New 2-CG
   NFREE  =      0    steps in history (QN), initial steepest desc. (CG)
   ISIF   =      2    stress and relaxation
   IWAVPR =     11    prediction:  0-non 1-charg 2-wave 3-comb
   ISYM   =      2    0-nonsym 1-usesym 2-fastsym
   LCORR  =      T    Harris-Foulkes like correction to forces

   POTIM  = 0.3000    time-step for ionic-motion
   TEIN   =    0.0    initial temperature
   TEBEG  =    0.0;   TEEND  =   0.0 temperature during run
   SMASS  =  -3.00    Nose mass-parameter (am)
   estimated Nose-frequenzy (Omega)   =  0.10E-29 period in steps =****** mass=  -0.276E-26a.u.
   SCALEE = 1.0000    scale energy and forces
   NPACO  =    256;   APACO  = 16.0  distance and # of slots for P.C.
   PSTRESS=    0.0 pullay stress

  Mass of Ions in am
   POMASS =  14.00 16.00106.42
  Ionic Valenz
   ZVAL   =   5.00  6.00 10.00
  Atomic Wigner-Seitz radii
   RWIGS  =  -1.00 -1.00 -1.00
  virtual crystal weights 
   VCA    =   1.00  1.00  1.00
   NELECT =     755.0000    total number of electrons
   NUPDOWN=      -1.0000    fix difference up-down

 DOS related values:
   EMIN   =  10.00;   EMAX   =-10.00  energy-range for DOS
   EFERMI =   0.00
   ISMEAR =     1;   SIGMA  =   0.20  broadening in eV -4-tet -1-fermi 0-gaus

 Electronic relaxation 2 (details)
   IALGO  =     68    algorithm
   LDIAG  =      T    sub-space diagonalisation (order eigenvalues)
   LSUBROT=      F    optimize rotation matrix (better conditioning)
   TURBO    =      0    0=normal 1=particle mesh
   IRESTART =      0    0=no restart 2=restart with 2 vectors
   NREBOOT  =      0    no. of reboots
   NMIN     =      0    reboot dimension
   EREF     =   0.00    reference energy to select bands
   IMIX   =      4    mixing-type and parameters
     AMIX     =   0.40;   BMIX     =  1.00
     AMIX_MAG =   1.60;   BMIX_MAG =  1.00
     AMIN     =   0.10
     WC   =   100.;   INIMIX=   1;  MIXPRE=   1;  MAXMIX= -45

 Intra band minimization:
   WEIMIN = 0.0010     energy-eigenvalue tresh-hold
   EBREAK =  0.50E-08  absolut break condition
   DEPER  =   0.30     relativ break condition  

   TIME   =   0.40     timestep for ELM

  volume/ion in A,a.u.               =      42.57       287.25
  Fermi-wavevector in a.u.,A,eV,Ry     =   0.971022  1.834966 12.828714  0.942884
  Thomas-Fermi vector in A             =   2.101205
 
 Write flags
   LWAVE        =      F    write WAVECAR
   LDOWNSAMPLE  =      F    k-point downsampling of WAVECAR
   LCHARG       =      F    write CHGCAR
   LVTOT        =      F    write LOCPOT, total local potential
   LVHAR        =      F    write LOCPOT, Hartree potential only
   LELF         =      F    write electronic localiz. function (ELF)
   LORBIT       =     11    0 simple, 1 ext, 2 COOP (PROOUT), +10 PAW based schemes


 Dipole corrections
   LMONO  =      F    monopole corrections only (constant potential shift)
   LDIPOL =      T    correct potential (dipole corrections)
   IDIPOL =      3    1-x, 2-y, 3-z, 4-all directions 
   EPSILON=  1.0000000 bulk dielectric constant

 Exchange correlation treatment:
   GGA     =    --    GGA type
   LEXCH   =     8    internal setting for exchange type
   VOSKOWN=      0    Vosko Wilk Nusair interpolation
   LHFCALC =     F    Hartree Fock is set to
   LHFONE  =     F    Hartree Fock one center treatment
   AEXX    =    0.0000 exact exchange contribution

 Linear response parameters
   LEPSILON=     F    determine dielectric tensor
   LRPA    =     F    only Hartree local field effects (RPA)
   LNABLA  =     F    use nabla operator in PAW spheres
   LVEL    =     F    velocity operator in full k-point grid
   LINTERFAST=   F  fast interpolation
   KINTER  =     0    interpolate to denser k-point grid
   CSHIFT  =0.1000    complex shift for real part using Kramers Kronig
   OMEGAMAX=  -1.0    maximum frequency
   DEG_THRESHOLD= 0.2000000E-02 threshold for treating states as degnerate
   RTIME   =   -0.100 relaxation time in fs
  (WPLASMAI=    0.000 imaginary part of plasma frequency in eV, 0.658/RTIME)
   DFIELD  = 0.0000000 0.0000000 0.0000000 field for delta impulse in time
 
 Orbital magnetization related:
   ORBITALMAG=     F  switch on orbital magnetization
   LCHIMAG   =     F  perturbation theory with respect to B field
   DQ        =  0.001000  dq finite difference perturbation B field
   LLRAUG    =     F  two centre corrections for induced B field



--------------------------------------------------------------------------------------------------------


 quasi-Newton-method for relaxation of ions
   using selective dynamics as specified on POSCAR
 charge density and potential will be updated during run
 spin polarized calculation
 RMM-DIIS sequential band-by-band and
  variant of blocked Davidson during initial phase
 perform sub-space diagonalisation
    before iterative eigenvector-optimisation
 modified Broyden-mixing scheme, WC =      100.0
 initial mixing is a Kerker type mixing with AMIX =  0.4000 and BMIX =      1.0000
 Hartree-type preconditioning will be used
 using additional bands          118
 real space projection scheme for non local part
 use partial core corrections
 calculate Harris-corrections to forces 
   (improved forces if not selfconsistent)
 use gradient corrections 
 use of overlap-Matrix (Vanderbilt PP)
 Methfessel and Paxton  Order N= 1 SIGMA  =   0.20


--------------------------------------------------------------------------------------------------------


  energy-cutoff  :      400.00
  volume of cell :     3618.13
      direct lattice vectors                 reciprocal lattice vectors
    10.982000000  0.000000000  0.000000000     0.091058095  0.000000000  0.000000000
     0.000000000 10.982000000  0.000000000     0.000000000  0.091058095  0.000000000
     0.000000000  0.000000000 30.000000000     0.000000000  0.000000000  0.033333333

  length of vectors
    10.982000000 10.982000000 30.000000000     0.091058095  0.091058095  0.033333333


 
 k-points in units of 2pi/SCALE and weight: K-Point Grid                            
   0.01138226  0.01138226  0.00000000       0.125
   0.03414679  0.01138226  0.00000000       0.125
  -0.03414679  0.01138226  0.00000000       0.125
  -0.01138226  0.01138226  0.00000000       0.125
   0.01138226  0.03414679  0.00000000       0.125
   0.03414679  0.03414679  0.00000000       0.125
  -0.03414679  0.03414679  0.00000000       0.125
  -0.01138226  0.03414679  0.00000000       0.125
 
 k-points in reciprocal lattice and weights: K-Point Grid                            
   0.12500000  0.12500000  0.00000000       0.125
   0.37500000  0.12500000  0.00000000       0.125
  -0.37500000  0.12500000  0.00000000       0.125
  -0.12500000  0.12500000  0.00000000       0.125
   0.12500000  0.37500000  0.00000000       0.125
   0.37500000  0.37500000  0.00000000       0.125
  -0.37500000  0.37500000  0.00000000       0.125
  -0.12500000  0.37500000  0.00000000       0.125
 
 position of ions in fractional coordinates (direct lattice) 
   0.36504527  0.27520375  0.63988905
   0.37359771  0.00478998  0.65063567
   0.31461045  0.43791958  0.66392288
   0.74495584  0.37799676  0.65089972
   0.65338286  0.09493201  0.64486413
   0.64964009  0.65385094  0.64289504
   0.00727441  0.37489704  0.65085810
   0.09253822  0.09078251  0.64490556
   0.09520558  0.65611108  0.64456241
   0.87223456  0.87319414  0.64063588
   0.37515871  0.75164195  0.64944320
   0.37322633  0.01733756  0.68999851
   0.39612941  0.48481244  0.68362629
   0.71371835  0.38072408  0.68895998
   0.65935226  0.08824516  0.68490519
   0.65237787  0.65805173  0.68305219
   0.03292855  0.37463177  0.68946319
   0.08648765  0.08451865  0.68492289
   0.08944671  0.66297431  0.68462349
   0.87186023  0.87259914  0.68097360
   0.37707859  0.73614157  0.68875003
   0.12499165  0.12498335  0.40269655
   0.12497023  0.37495195  0.40267403
   0.12499236  0.62500758  0.40266666
   0.12501163  0.87503124  0.40268882
   0.37498215  0.12498036  0.40269194
   0.37498421  0.37493860  0.40266743
   0.37497903  0.62499325  0.40265448
   0.37497568  0.87502885  0.40268133
   0.62500242  0.12499384  0.40268658
   0.62501796  0.37493273  0.40266902
   0.62501741  0.62497079  0.40264260
   0.62500165  0.87503289  0.40266024
   0.87501190  0.12499868  0.40269140
   0.87500989  0.37494707  0.40267799
   0.87503229  0.62498518  0.40265594
   0.87503623  0.87503591  0.40266793
   0.99966659  0.00040361  0.46772893
   0.99841003  0.25082770  0.46837136
   0.99929075  0.49931565  0.46832521
   0.00074562  0.74931968  0.46801032
   0.24998120  0.99874822  0.46828764
   0.24860576  0.24899457  0.46766474
   0.24855462  0.50165104  0.46728716
   0.25003832  0.75166081  0.46835850
   0.49919935  0.99956065  0.46822321
   0.50088442  0.24932739  0.46742439
   0.50206252  0.50226225  0.46732179
   0.49910798  0.75272976  0.46810358
   0.74898827  0.00150902  0.46795866
   0.75114211  0.25095224  0.46849705
   0.75271491  0.49963315  0.46808442
   0.75023527  0.75069312  0.46783286
   0.12212258  0.12347823  0.53379510
   0.12328372  0.37584497  0.53271687
   0.12513524  0.62463614  0.53470875
   0.12715809  0.87475941  0.53392754
   0.37533130  0.12235441  0.53210333
   0.37510138  0.37819886  0.52974465
   0.37364415  0.62894530  0.53193684
   0.37418536  0.87585227  0.53786423
   0.62453770  0.12660634  0.53476481
   0.62821559  0.37461493  0.53208848
   0.62910163  0.62949518  0.53270477
   0.62146821  0.87778197  0.53366553
   0.87376238  0.12887670  0.53424860
   0.87561214  0.37535333  0.53835037
   0.87672365  0.62201535  0.53391790
   0.87450678  0.87568217  0.53235063
   0.99442990  0.99564933  0.60039759
   0.00525492  0.24320673  0.60529088
   0.01040571  0.50555309  0.60531641
   0.99588147  0.75295008  0.60039356
   0.24183314  0.00515494  0.60494541
   0.24826768  0.25166216  0.59516435
   0.26195589  0.49577682  0.60113345
   0.24298849  0.74194038  0.60459033
   0.50465969  0.01048615  0.60502500
   0.49522377  0.26203684  0.59901501
   0.50347752  0.50345877  0.59346015
   0.50592780  0.74726144  0.60373896
   0.75172649  0.99763735  0.60060426
   0.74047557  0.24543304  0.60559005
   0.74586644  0.50684712  0.60454648
   0.75318359  0.75449579  0.60005904
 
 position of ions in cartesian coordinates  (Angst):
   4.00892718  3.02228758 19.19667147
   4.10285005  0.05260357 19.51907015
   3.45505192  4.80923281 19.91768649
   8.18110506  4.15116038 19.52699156
   7.17545059  1.04254332 19.34592378
   7.13434746  7.18059105 19.28685123
   0.07988754  4.11711927 19.52574300
   1.01625477  0.99697356 19.34716671
   1.04554766  7.20541190 19.33687220
   9.57887996  9.58941810 19.21907639
   4.11999294  8.25453189 19.48329593
   4.09877157  0.19040105 20.69995525
   4.35029315  5.32421020 20.50878870
   7.83805492  4.18111184 20.66879928
   7.24100656  0.96910834 20.54715569
   7.16441378  7.22672409 20.49156559
   0.36162136  4.11420613 20.68389565
   0.94980738  0.92818380 20.54768668
   0.98230378  7.28078382 20.53870460
   9.57476902  9.58288375 20.42920796
   4.14107713  8.08430672 20.66250105
   1.37265830  1.37256715 12.08089644
   1.37242307  4.11772232 12.08022076
   1.37266611  6.86383321 12.07999968
   1.37287769  9.60959307 12.08066459
   4.11805392  1.37253436 12.08075834
   4.11807659  4.11757565 12.08002281
   4.11801970  6.86367590 12.07963431
   4.11798295  9.60956681 12.08043994
   6.86377652  1.37268240 12.08059753
   6.86394726  4.11751124 12.08007056
   6.86394119  6.86342923 12.07927786
   6.86376809  9.60961119 12.07980733
   9.60938074  1.37273546 12.08074212
   9.60935862  4.11766873 12.08033971
   9.60960457  6.86358723 12.07967820
   9.60964792  9.60964439 12.08003798
  10.97833853  0.00443247 14.03186779
  10.96453897  2.75458979 14.05114068
  10.97421101  5.48348449 14.04975644
   0.00818838  8.22902875 14.04030971
   2.74529358 10.96825299 14.04862925
   2.73018850  2.73445837 14.02994218
   2.72962683  5.50913170 14.01861475
   2.74592086  8.25473897 14.05075508
   5.48220729 10.97717511 14.04669631
   5.50071270  2.73811340 14.02273177
   5.51365060  5.51584404 14.01965373
   5.48120383  8.26647826 14.04310733
   8.22538919  0.01657203 14.03875983
   8.24904261  2.75595746 14.05491141
   8.26631519  5.48697123 14.04253261
   8.23908372  8.24411184 14.03498593
   1.34115017  1.35603795 16.01385293
   1.35390180  4.12752942 15.98150622
   1.37423516  6.85975407 16.04126241
   1.39645012  9.60660784 16.01782630
   4.12188839  1.34369609 15.96309981
   4.11936338  4.15337992 15.89233955
   4.10336009  6.90707724 15.95810525
   4.10930359  9.61860968 16.13592681
   6.85867305  1.39039088 16.04294438
   6.89906365  4.11402118 15.96265437
   6.90879406  6.91311610 15.98114301
   6.82496384  9.63980159 16.00996597
   9.59565850  1.41532388 16.02745805
   9.61597256  4.12213024 16.15051123
   9.62817909  6.83097257 16.01753699
   9.60383342  9.61674157 15.97051878
  10.92082916 10.93422097 18.01192769
   0.05770953  2.67089636 18.15872634
   0.11427555  5.55198406 18.15949233
  10.93677029  8.26889774 18.01180687
   2.65581157  0.05661156 18.14836218
   2.72647568  2.76375388 17.85493045
   2.87679959  5.44462104 18.03400340
   2.66849962  8.14798920 18.13770977
   5.54217272  0.11515890 18.15074997
   5.43854740  2.87768854 17.97045026
   5.52919007  5.52898421 17.80380441
   5.55609906  8.20642512 18.11216883
   8.25546031 10.95605343 18.01812786
   8.13190271  2.69534566 18.16770145
   8.19110519  5.56619507 18.13639434
   8.27146215  8.28587281 18.00177128
 


--------------------------------------------------------------------------------------------------------


 k-point  1 :   0.1250 0.1250 0.0000  plane waves:   65671
 k-point  2 :   0.3750 0.1250 0.0000  plane waves:   65719
 k-point  3 :  -0.3750 0.1250 0.0000  plane waves:   65719
 k-point  4 :  -0.1250 0.1250 0.0000  plane waves:   65671
 k-point  5 :   0.1250 0.3750 0.0000  plane waves:   65719
 k-point  6 :   0.3750 0.3750 0.0000  plane waves:   65776
 k-point  7 :  -0.3750 0.3750 0.0000  plane waves:   65776
 k-point  8 :  -0.1250 0.3750 0.0000  plane waves:   65719

 maximum and minimum number of plane-waves per node :      6612     6539

 maximum number of plane-waves:     65776
 maximum index in each direction: 
   IXMAX=   18   IYMAX=   17   IZMAX=   48
   IXMIN=  -18   IYMIN=  -18   IZMIN=  -48


 real space projection operators:
  total allocation   :      44831.94 KBytes
  max/ min on nodes  :       5059.41       4234.81


 parallel 3D FFT for wavefunctions:
    minimum data exchange during FFTs selected (reduces bandwidth)
 parallel 3D FFT for charge:
    minimum data exchange during FFTs selected (reduces bandwidth)


 total amount of memory used by VASP MPI-rank0   538902. kBytes
=======================================================================

   base      :      30000. kBytes
   nonlr-proj:      14623. kBytes
   fftplans  :      18152. kBytes
   grid      :      48955. kBytes
   one-center:        279. kBytes
   wavefun   :     426893. kBytes
 
     INWAV:  cpu time    0.0001: real time    0.0004
 Broyden mixing: mesh for mixing (old mesh)
   NGX = 35   NGY = 35   NGZ = 97
  (NGX  =144   NGY  =144   NGZ  =392)
  gives a total of 118825 points

 initial charge density was supplied:
 charge density of overlapping atoms calculated
 number of electron     755.0000000 magnetization      85.0000000
 keeping initial charge density in first step


--------------------------------------------------------------------------------------------------------


 Maximum index for non-local projection operator          841
 Maximum index for augmentation-charges         1311 (set IRDMAX)


--------------------------------------------------------------------------------------------------------


 First call to EWALD:  gamma=   0.115
 Maximum number of real-space cells 4x 4x 2
 Maximum number of reciprocal cells 2x 2x 5

    FEWALD:  cpu time    0.0101: real time    0.0051


--------------------------------------- Iteration      1(   1)  ---------------------------------------


    POTLOK:  cpu time   16.4325: real time   46.7660
    SETDIJ:  cpu time    1.9451: real time    2.4443
     EDDAV:  cpu time  242.3795: real time  127.9068
       DOS:  cpu time    9.6215: real time    9.5131
    --------------------------------------------
      LOOP:  cpu time  270.3788: real time  186.6304

 eigenvalue-minimisations  : 16296
 total energy-change (2. order) : 0.4830510E+04  (-0.2929909E+05)
 number of electron     755.0000000 magnetization      85.0000000
 augmentation part      755.0000000 magnetization      85.0000000

 DIPCOR: dipole corrections for dipol
 direction  3 min pos     1,
 dipolmoment           0.000000      0.000000     -0.000560 electrons x Angstroem
 Tr[quadrupol]    -15346.275642

 energy correction for charged system         0.000000 eV
 dipol+quadrupol energy correction           -0.000000 eV
 added-field ion interaction          0.017024 eV  (added to PSCEN)


 Free energy of the ion-electron system (eV)
  ---------------------------------------------------
  alpha Z        PSCENC =       968.22000169
  Ewald energy   TEWEN  =    444145.88373463
  -Hartree energ DENC   =   -503323.06628107
  -exchange      EXHF   =         0.00000000
  -V(xc)+E(xc)   XCENC  =     -1379.63030070
  PAW double counting   =     57342.28654816   -53391.45729325
  entropy T*S    EENTRO =         0.00753598
  eigenvalues    EBANDS =      1412.80020701
  atomic energy  EATOM  =     59055.46611198
  Solvation  Ediel_sol  =         0.00000000
  ---------------------------------------------------
  free energy    TOTEN  =      4830.51026444 eV

  energy without entropy =     4830.50272846  energy(sigma->0) =     4830.50775245


--------------------------------------------------------------------------------------------------------




--------------------------------------- Iteration      1(   2)  ---------------------------------------


     EDDAV:  cpu time  255.6090: real time  132.5648
       DOS:  cpu time    0.1547: real time    0.1191
    --------------------------------------------
      LOOP:  cpu time  255.7637: real time  132.6840

 eigenvalue-minimisations  : 18824
 total energy-change (2. order) :-0.4904739E+04  (-0.4587817E+04)
 number of electron     755.0000000 magnetization      85.0000000
 augmentation part      755.0000000 magnetization      85.0000000

 DIPCOR: dipole corrections for dipol
 direction  3 min pos     1,
 dipolmoment           0.000000      0.000000     -0.000560 electrons x Angstroem
 Tr[quadrupol]    -15346.275642

 energy correction for charged system         0.000000 eV
 dipol+quadrupol energy correction           -0.000000 eV
 added-field ion interaction          0.017024 eV  (added to PSCEN)


 Free energy of the ion-electron system (eV)
  ---------------------------------------------------
  alpha Z        PSCENC =       968.22000169
  Ewald energy   TEWEN  =    444145.88373463
  -Hartree energ DENC   =   -503323.06628107
  -exchange      EXHF   =         0.00000000
  -V(xc)+E(xc)   XCENC  =     -1379.63030070
  PAW double counting   =     57342.28654816   -53391.45729325
  entropy T*S    EENTRO =        -0.00386140
  eigenvalues    EBANDS =     -3491.92699864
  atomic energy  EATOM  =     59055.46611198
  Solvation  Ediel_sol  =         0.00000000
  ---------------------------------------------------
  free energy    TOTEN  =       -74.22833858 eV

  energy without entropy =      -74.22447719  energy(sigma->0) =      -74.22705145


--------------------------------------------------------------------------------------------------------




--------------------------------------- Iteration      1(   3)  ---------------------------------------


     EDDAV:  cpu time  251.5574: real time  126.0969
       DOS:  cpu time    0.1545: real time    0.1191
    --------------------------------------------
      LOOP:  cpu time  251.7118: real time  126.2160

 eigenvalue-minimisations  : 18432
 total energy-change (2. order) :-0.3853216E+03  (-0.3560933E+03)
 number of electron     755.0000000 magnetization      85.0000000
 augmentation part      755.0000000 magnetization      85.0000000

 DIPCOR: dipole corrections for dipol
 direction  3 min pos     1,
 dipolmoment           0.000000      0.000000     -0.000560 electrons x Angstroem
 Tr[quadrupol]    -15346.275642

 energy correction for charged system         0.000000 eV
 dipol+quadrupol energy correction           -0.000000 eV
 added-field ion interaction          0.017024 eV  (added to PSCEN)


 Free energy of the ion-electron system (eV)
  ---------------------------------------------------
  alpha Z        PSCENC =       968.22000169
  Ewald energy   TEWEN  =    444145.88373463
  -Hartree energ DENC   =   -503323.06628107
  -exchange      EXHF   =         0.00000000
  -V(xc)+E(xc)   XCENC  =     -1379.63030070
  PAW double counting   =     57342.28654816   -53391.45729325
  entropy T*S    EENTRO =        -0.06879089
  eigenvalues    EBANDS =     -3877.18368241
  atomic energy  EATOM  =     59055.46611198
  Solvation  Ediel_sol  =         0.00000000
  ---------------------------------------------------
  free energy    TOTEN  =      -459.54995185 eV

  energy without entropy =     -459.48116096  energy(sigma->0) =     -459.52702155


--------------------------------------------------------------------------------------------------------




--------------------------------------- Iteration      1(   4)  ---------------------------------------


     EDDAV:  cpu time  245.3379: real time  122.9623
       DOS:  cpu time    0.1407: real time    0.1043
    --------------------------------------------
      LOOP:  cpu time  245.4787: real time  123.0666

 eigenvalue-minimisations  : 17760
 total energy-change (2. order) :-0.1259202E+02  (-0.1214842E+02)
 number of electron     755.0000000 magnetization      85.0000000
 augmentation part      755.0000000 magnetization      85.0000000

 DIPCOR: dipole corrections for dipol
 direction  3 min pos     1,
 dipolmoment           0.000000      0.000000     -0.000560 electrons x Angstroem
 Tr[quadrupol]    -15346.275642

 energy correction for charged system         0.000000 eV
 dipol+quadrupol energy correction           -0.000000 eV
 added-field ion interaction          0.017024 eV  (added to PSCEN)


 Free energy of the ion-electron system (eV)
  ---------------------------------------------------
  alpha Z        PSCENC =       968.22000169
  Ewald energy   TEWEN  =    444145.88373463
  -Hartree energ DENC   =   -503323.06628107
  -exchange      EXHF   =         0.00000000
  -V(xc)+E(xc)   XCENC  =     -1379.63030070
  PAW double counting   =     57342.28654816   -53391.45729325
  entropy T*S    EENTRO =        -0.04892857
  eigenvalues    EBANDS =     -3889.79556606
  atomic energy  EATOM  =     59055.46611198
  Solvation  Ediel_sol  =         0.00000000
  ---------------------------------------------------
  free energy    TOTEN  =      -472.14197318 eV

  energy without entropy =     -472.09304461  energy(sigma->0) =     -472.12566365


--------------------------------------------------------------------------------------------------------




--------------------------------------- Iteration      1(   5)  ---------------------------------------


     EDDAV:  cpu time  259.7666: real time  130.1926
       DOS:  cpu time    0.0787: real time    0.0400
    CHARGE:  cpu time    5.2425: real time    4.9393
    MIXING:  cpu time    0.0604: real time    0.0303
    --------------------------------------------
      LOOP:  cpu time  265.1484: real time  135.2023

 eigenvalue-minimisations  : 19104
 total energy-change (2. order) :-0.3979441E+00  (-0.3971743E+00)
 number of electron     754.9999806 magnetization      81.3338411
 augmentation part      264.9419613 magnetization      66.4045430

 DIPCOR: dipole corrections for dipol
 direction  3 min pos     1,
 dipolmoment           0.000000      0.000000     -0.000560 electrons x Angstroem
 Tr[quadrupol]    -15346.275642

 energy correction for charged system         0.000000 eV
 dipol+quadrupol energy correction           -0.000000 eV
 added-field ion interaction          0.017024 eV  (added to PSCEN)


 Broyden mixing:
  rms(total) = 0.72637E+01    rms(broyden)= 0.72611E+01
  rms(prec ) = 0.73668E+01
  weight for this iteration     100.00

 Free energy of the ion-electron system (eV)
  ---------------------------------------------------
  alpha Z        PSCENC =       968.22000169
  Ewald energy   TEWEN  =    444145.88373463
  -Hartree energ DENC   =   -503323.06628107
  -exchange      EXHF   =         0.00000000
  -V(xc)+E(xc)   XCENC  =     -1379.63030070
  PAW double counting   =     57342.28654816   -53391.45729325
  entropy T*S    EENTRO =        -0.04857149
  eigenvalues    EBANDS =     -3890.19386729
  atomic energy  EATOM  =     59055.46611198
  Solvation  Ediel_sol  =         0.00000000
  ---------------------------------------------------
  free energy    TOTEN  =      -472.53991732 eV

  energy without entropy =     -472.49134583  energy(sigma->0) =     -472.52372683


--------------------------------------------------------------------------------------------------------




--------------------------------------- Iteration      1(   6)  ---------------------------------------


    POTLOK:  cpu time    0.5696: real time    0.5345
    SETDIJ:  cpu time    0.0688: real time    0.0418
    EDDIAG:  cpu time   36.8375: real time   18.4623
  RMM-DIIS:  cpu time  136.1538: real time   69.7025
    ORTHCH:  cpu time    5.9865: real time    3.0804
       DOS:  cpu time    0.1406: real time    0.1028
    CHARGE:  cpu time    5.0786: real time    4.8239
    MIXING:  cpu time    0.1713: real time    1.1433
    --------------------------------------------
      LOOP:  cpu time  185.0064: real time   97.8915

 eigenvalue-minimisations  : 15872
 total energy-change (2. order) : 0.4163232E+02  (-0.1879500E+02)
 number of electron     754.9999820 magnetization      79.0262784
 augmentation part      282.7474428 magnetization      65.7305361

 DIPCOR: dipole corrections for dipol
 direction  3 min pos     1,
 dipolmoment           0.000000      0.000000      0.757438 electrons x Angstroem
 Tr[quadrupol]    -15341.056566

 energy correction for charged system         0.000000 eV
 dipol+quadrupol energy correction           -0.014346 eV
 added-field ion interaction        -23.021422 eV  (added to PSCEN)


 Broyden mixing:
  rms(total) = 0.65161E+01    rms(broyden)= 0.65109E+01
  rms(prec ) = 0.68357E+01
  weight for this iteration     100.00

 eigenvalues of (default mixing * dielectric matrix)
  average eigenvalue GAMMA=   0.6492
  0.6492

 Free energy of the ion-electron system (eV)
  ---------------------------------------------------
  alpha Z        PSCENC =       945.16720898
  Ewald energy   TEWEN  =    444145.88373463
  -Hartree energ DENC   =   -502808.41399904
  -exchange      EXHF   =         0.00000000
  -V(xc)+E(xc)   XCENC  =     -1349.55901083
  PAW double counting   =     62565.48463483   -58702.14616561
  entropy T*S    EENTRO =         0.04586775
  eigenvalues    EBANDS =     -4282.83597686
  atomic energy  EATOM  =     59055.46611198
  Solvation  Ediel_sol  =         0.00000000
  ---------------------------------------------------
  free energy    TOTEN  =      -430.90759416 eV

  energy without entropy =     -430.95346191  energy(sigma->0) =     -430.92288341


--------------------------------------------------------------------------------------------------------




--------------------------------------- Iteration      1(   7)  ---------------------------------------


    POTLOK:  cpu time    0.4592: real time    0.5888
    SETDIJ:  cpu time    0.0608: real time    0.0376
    EDDIAG:  cpu time   36.9618: real time   18.5298
  RMM-DIIS:  cpu time  135.4593: real time   69.2719
    ORTHCH:  cpu time    5.9579: real time    3.0617
       DOS:  cpu time    0.0724: real time    0.0363
    CHARGE:  cpu time    5.2529: real time    4.9935
    MIXING:  cpu time    0.0307: real time    0.0154
    --------------------------------------------
      LOOP:  cpu time  184.2551: real time   96.5350

 eigenvalue-minimisations  : 15894
 total energy-change (2. order) : 0.2108831E+02  (-0.6006522E+01)
 number of electron     754.9999795 magnetization      75.2312569
 augmentation part      272.7636474 magnetization      56.7797865

 DIPCOR: dipole corrections for dipol
 direction  3 min pos     1,
 dipolmoment           0.000000      0.000000     -0.745006 electrons x Angstroem
 Tr[quadrupol]    -15362.063127

 energy correction for charged system         0.000000 eV
 dipol+quadrupol energy correction           -0.013879 eV
 added-field ion interaction         22.643564 eV  (added to PSCEN)


 Broyden mixing:
  rms(total) = 0.43959E+01    rms(broyden)= 0.43873E+01
  rms(prec ) = 0.47634E+01
  weight for this iteration     100.00

 eigenvalues of (default mixing * dielectric matrix)
  average eigenvalue GAMMA=   0.7780
  1.1881  0.3680

 Free energy of the ion-electron system (eV)
  ---------------------------------------------------
  alpha Z        PSCENC =       990.83266231
  Ewald energy   TEWEN  =    444145.88373463
  -Hartree energ DENC   =   -503497.30108759
  -exchange      EXHF   =         0.00000000
  -V(xc)+E(xc)   XCENC  =     -1354.68589466
  PAW double counting   =     64853.13567552   -61000.56947906
  entropy T*S    EENTRO =        -0.02179739
  eigenvalues    EBANDS =     -3602.55921145
  atomic energy  EATOM  =     59055.46611198
  Solvation  Ediel_sol  =         0.00000000
  ---------------------------------------------------
  free energy    TOTEN  =      -409.81928572 eV

  energy without entropy =     -409.79748832  energy(sigma->0) =     -409.81201992


--------------------------------------------------------------------------------------------------------




--------------------------------------- Iteration      1(   8)  ---------------------------------------


    POTLOK:  cpu time    0.6133: real time    0.5280
    SETDIJ:  cpu time    0.0634: real time    0.0389
    EDDIAG:  cpu time   36.6772: real time   18.3868
  RMM-DIIS:  cpu time  136.1859: real time   69.3533
    ORTHCH:  cpu time    5.9920: real time    3.0073
       DOS:  cpu time    0.0779: real time    0.0390
    CHARGE:  cpu time    5.1160: real time    4.8605
    MIXING:  cpu time    0.0301: real time    0.0151
    --------------------------------------------
      LOOP:  cpu time  184.7559: real time   96.2290

 eigenvalue-minimisations  : 15872
 total energy-change (2. order) :-0.2271319E+02  (-0.8086731E+01)
 number of electron     754.9999805 magnetization      72.1151130
 augmentation part      281.0157925 magnetization      60.2532871

 DIPCOR: dipole corrections for dipol
 direction  3 min pos     1,
 dipolmoment           0.000000      0.000000      0.832334 electrons x Angstroem
 Tr[quadrupol]    -15349.696438

 energy correction for charged system         0.000000 eV
 dipol+quadrupol energy correction           -0.017324 eV
 added-field ion interaction        -25.297799 eV  (added to PSCEN)


 Broyden mixing:
  rms(total) = 0.56590E+01    rms(broyden)= 0.56568E+01
  rms(prec ) = 0.65043E+01
  weight for this iteration     100.00

 eigenvalues of (default mixing * dielectric matrix)
  average eigenvalue GAMMA=   0.7409
  1.5308  0.4262  0.2658

 Free energy of the ion-electron system (eV)
  ---------------------------------------------------
  alpha Z        PSCENC =       942.88785531
  Ewald energy   TEWEN  =    444145.88373463
  -Hartree energ DENC   =   -503135.00919045
  -exchange      EXHF   =         0.00000000
  -V(xc)+E(xc)   XCENC  =     -1344.36413022
  PAW double counting   =     67873.73406639   -64055.48679681
  entropy T*S    EENTRO =         0.09473722
  eigenvalues    EBANDS =     -3915.73886454
  atomic energy  EATOM  =     59055.46611198
  Solvation  Ediel_sol  =         0.00000000
  ---------------------------------------------------
  free energy    TOTEN  =      -432.53247649 eV

  energy without entropy =     -432.62721371  energy(sigma->0) =     -432.56405556


--------------------------------------------------------------------------------------------------------




--------------------------------------- Iteration      1(   9)  ---------------------------------------


    POTLOK:  cpu time    0.6219: real time    0.4783
    SETDIJ:  cpu time    0.0632: real time    0.0387
    EDDIAG:  cpu time   36.4260: real time   18.2599
  RMM-DIIS:  cpu time  137.1615: real time   69.2119
    ORTHCH:  cpu time    5.9648: real time    3.0407
       DOS:  cpu time    0.0788: real time    0.0395
    CHARGE:  cpu time    5.1259: real time    4.8690
    MIXING:  cpu time    0.0298: real time    0.0149
    --------------------------------------------
      LOOP:  cpu time  185.4716: real time   95.9530

 eigenvalue-minimisations  : 15872
 total energy-change (2. order) :-0.3460281E+02  (-0.3837635E+01)
 number of electron     754.9999866 magnetization      71.1363908
 augmentation part      269.3253706 magnetization      55.1218545

 DIPCOR: dipole corrections for dipol
 direction  3 min pos     1,
 dipolmoment           0.000000      0.000000     -2.001751 electrons x Angstroem
 Tr[quadrupol]    -15359.627289

 energy correction for charged system         0.000000 eV
 dipol+quadrupol energy correction           -0.100200 eV
 added-field ion interaction         60.840847 eV  (added to PSCEN)


 Broyden mixing:
  rms(total) = 0.85788E+01    rms(broyden)= 0.85735E+01
  rms(prec ) = 0.11879E+02
  weight for this iteration     100.00

 eigenvalues of (default mixing * dielectric matrix)
  average eigenvalue GAMMA=   0.6174
  1.6543  0.4576  0.2542  0.1036

 Free energy of the ion-electron system (eV)
  ---------------------------------------------------
  alpha Z        PSCENC =      1028.94362492
  Ewald energy   TEWEN  =    444145.88373463
  -Hartree energ DENC   =   -503355.55902345
  -exchange      EXHF   =         0.00000000
  -V(xc)+E(xc)   XCENC  =     -1343.44202923
  PAW double counting   =     69857.14343285   -66053.87404308
  entropy T*S    EENTRO =        -0.11896781
  eigenvalues    EBANDS =     -3801.57813214
  atomic energy  EATOM  =     59055.46611198
  Solvation  Ediel_sol  =         0.00000000
  ---------------------------------------------------
  free energy    TOTEN  =      -467.13529132 eV

  energy without entropy =     -467.01632351  energy(sigma->0) =     -467.09563539


--------------------------------------------------------------------------------------------------------




--------------------------------------- Iteration      1(  10)  ---------------------------------------


    POTLOK:  cpu time    0.6053: real time   12.0460
    SETDIJ:  cpu time    0.0621: real time    0.0382
    EDDIAG:  cpu time   37.0257: real time   18.5606
  RMM-DIIS:  cpu time  136.3373: real time   69.3814
    ORTHCH:  cpu time    5.9699: real time    3.7022
       DOS:  cpu time    0.1144: real time    0.0760
    CHARGE:  cpu time    5.0135: real time    4.7575
    MIXING:  cpu time    0.0372: real time    0.0186
    --------------------------------------------
      LOOP:  cpu time  185.1655: real time  108.5806

 eigenvalue-minimisations  : 15872
 total energy-change (2. order) : 0.7338385E+02  (-0.1481476E+01)
 number of electron     754.9999807 magnetization      69.1418657
 augmentation part      281.1832470 magnetization      55.0451237

 DIPCOR: dipole corrections for dipol
 direction  3 min pos     1,
 dipolmoment           0.000000      0.000000      0.571817 electrons x Angstroem
 Tr[quadrupol]    -15357.866863

 energy correction for charged system         0.000000 eV
 dipol+quadrupol energy correction           -0.008176 eV
 added-field ion interaction        -17.379690 eV  (added to PSCEN)


 Broyden mixing:
  rms(total) = 0.27591E+01    rms(broyden)= 0.27451E+01
  rms(prec ) = 0.30164E+01
  weight for this iteration     100.00

 eigenvalues of (default mixing * dielectric matrix)
  average eigenvalue GAMMA=   0.6357
  1.8101  0.6538  0.3202  0.3202  0.0743

 Free energy of the ion-electron system (eV)
  ---------------------------------------------------
  alpha Z        PSCENC =       950.81511148
  Ewald energy   TEWEN  =    444145.88373463
  -Hartree energ DENC   =   -503449.69882663
  -exchange      EXHF   =         0.00000000
  -V(xc)+E(xc)   XCENC  =     -1339.81933039
  PAW double counting   =     70381.40424283   -66585.78218516
  entropy T*S    EENTRO =        -0.02983548
  eigenvalues    EBANDS =     -3551.99046790
  atomic energy  EATOM  =     59055.46611198
  Solvation  Ediel_sol  =         0.00000000
  ---------------------------------------------------
  free energy    TOTEN  =      -393.75144464 eV

  energy without entropy =     -393.72160916  energy(sigma->0) =     -393.74149948


--------------------------------------------------------------------------------------------------------




--------------------------------------- Iteration      1(  11)  ---------------------------------------


    POTLOK:  cpu time    0.6032: real time    0.5190
    SETDIJ:  cpu time    0.0636: real time    0.0392
    EDDIAG:  cpu time   36.7586: real time   18.4258
  RMM-DIIS:  cpu time  137.7118: real time   69.6234
    ORTHCH:  cpu time    5.9989: real time    3.0580
       DOS:  cpu time    0.1448: real time    0.1061
    CHARGE:  cpu time    5.2035: real time    4.9462
    MIXING:  cpu time    0.0315: real time    0.0158
    --------------------------------------------
      LOOP:  cpu time  186.5158: real time   96.7334

 eigenvalue-minimisations  : 15898
 total energy-change (2. order) : 0.1254678E+01  (-0.1161942E+01)
 number of electron     754.9999809 magnetization      66.5245777
 augmentation part      279.9001561 magnetization      52.5526313

 DIPCOR: dipole corrections for dipol
 direction  3 min pos     1,
 dipolmoment           0.000000      0.000000      0.260385 electrons x Angstroem
 Tr[quadrupol]    -15361.024114

 energy correction for charged system         0.000000 eV
 dipol+quadrupol energy correction           -0.001695 eV
 added-field ion interaction         -7.914102 eV  (added to PSCEN)


 Broyden mixing:
  rms(total) = 0.20850E+01    rms(broyden)= 0.20845E+01
  rms(prec ) = 0.23326E+01
  weight for this iteration     100.00

 eigenvalues of (default mixing * dielectric matrix)
  average eigenvalue GAMMA=   0.6392
  1.9163  0.8003  0.3719  0.3719  0.2987  0.0761

 Free energy of the ion-electron system (eV)
  ---------------------------------------------------
  alpha Z        PSCENC =       960.28718038
  Ewald energy   TEWEN  =    444145.88373463
  -Hartree energ DENC   =   -503547.84527256
  -exchange      EXHF   =         0.00000000
  -V(xc)+E(xc)   XCENC  =     -1345.52577756
  PAW double counting   =     70824.45521729   -67028.97641676
  entropy T*S    EENTRO =        -0.00536223
  eigenvalues    EBANDS =     -3456.23618198
  atomic energy  EATOM  =     59055.46611198
  Solvation  Ediel_sol  =         0.00000000
  ---------------------------------------------------
  free energy    TOTEN  =      -392.49676681 eV

  energy without entropy =     -392.49140458  energy(sigma->0) =     -392.49497940


--------------------------------------------------------------------------------------------------------




--------------------------------------- Iteration      1(  12)  ---------------------------------------


    POTLOK:  cpu time    0.5979: real time    0.7144
    SETDIJ:  cpu time    0.0632: real time    0.0387
    EDDIAG:  cpu time   36.8746: real time   18.4863
  RMM-DIIS:  cpu time  137.5565: real time   69.5607
    ORTHCH:  cpu time    5.9742: real time   15.6818
       DOS:  cpu time    0.2762: real time    1.8878
    CHARGE:  cpu time    5.0731: real time    4.8171
    MIXING:  cpu time    0.0324: real time    0.0163
    --------------------------------------------
      LOOP:  cpu time  186.4483: real time  111.2031

 eigenvalue-minimisations  : 15904
 total energy-change (2. order) :-0.1460696E+01  (-0.3035700E+00)
 number of electron     754.9999800 magnetization      65.0245544
 augmentation part      278.1563198 magnetization      50.7502787

 DIPCOR: dipole corrections for dipol
 direction  3 min pos     1,
 dipolmoment           0.000000      0.000000      0.370246 electrons x Angstroem
 Tr[quadrupol]    -15364.154609

 energy correction for charged system         0.000000 eV
 dipol+quadrupol energy correction           -0.003428 eV
 added-field ion interaction        -11.253174 eV  (added to PSCEN)


 Broyden mixing:
  rms(total) = 0.19557E+01    rms(broyden)= 0.19554E+01
  rms(prec ) = 0.22380E+01
  weight for this iteration     100.00

 eigenvalues of (default mixing * dielectric matrix)
  average eigenvalue GAMMA=   0.6125
  1.9687  0.8387  0.5133  0.3107  0.3107  0.2694  0.0757

 Free energy of the ion-electron system (eV)
  ---------------------------------------------------
  alpha Z        PSCENC =       956.94637604
  Ewald energy   TEWEN  =    444145.88373463
  -Hartree energ DENC   =   -503681.31322842
  -exchange      EXHF   =         0.00000000
  -V(xc)+E(xc)   XCENC  =     -1346.44481610
  PAW double counting   =     71180.31208725   -67383.97629468
  entropy T*S    EENTRO =        -0.04615337
  eigenvalues    EBANDS =     -3320.78528020
  atomic energy  EATOM  =     59055.46611198
  Solvation  Ediel_sol  =         0.00000000
  ---------------------------------------------------
  free energy    TOTEN  =      -393.95746286 eV

  energy without entropy =     -393.91130950  energy(sigma->0) =     -393.94207841


--------------------------------------------------------------------------------------------------------




--------------------------------------- Iteration      1(  13)  ---------------------------------------


    POTLOK:  cpu time    0.5932: real time    0.5551
    SETDIJ:  cpu time    0.0629: real time    0.0385
    EDDIAG:  cpu time   36.7533: real time   18.4283
  RMM-DIIS:  cpu time  138.3997: real time   69.9245
    ORTHCH:  cpu time    5.9946: real time    3.0786
       DOS:  cpu time    0.1688: real time    0.1305
    CHARGE:  cpu time    5.1252: real time    4.8684
    MIXING:  cpu time    0.0354: real time    0.0177
    --------------------------------------------
      LOOP:  cpu time  187.1329: real time   97.0417

 eigenvalue-minimisations  : 15903
 total energy-change (2. order) :-0.6353287E+00  (-0.1396801E+00)
 number of electron     754.9999799 magnetization      61.6201927
 augmentation part      278.2198214 magnetization      47.3118515

 DIPCOR: dipole corrections for dipol
 direction  3 min pos     1,
 dipolmoment           0.000000      0.000000      0.417214 electrons x Angstroem
 Tr[quadrupol]    -15364.648906

 energy correction for charged system         0.000000 eV
 dipol+quadrupol energy correction           -0.004353 eV
 added-field ion interaction        -12.680716 eV  (added to PSCEN)


 Broyden mixing:
  rms(total) = 0.17249E+01    rms(broyden)= 0.17248E+01
  rms(prec ) = 0.20089E+01
  weight for this iteration     100.00

 eigenvalues of (default mixing * dielectric matrix)
  average eigenvalue GAMMA=   0.6276
  2.0624  0.8544  0.7748  0.3743  0.3743  0.3169  0.0759  0.1882

 Free energy of the ion-electron system (eV)
  ---------------------------------------------------
  alpha Z        PSCENC =       955.51790870
  Ewald energy   TEWEN  =    444145.88373463
  -Hartree energ DENC   =   -503701.46575110
  -exchange      EXHF   =         0.00000000
  -V(xc)+E(xc)   XCENC  =     -1347.11834840
  PAW double counting   =     71348.89050987   -67553.55501984
  entropy T*S    EENTRO =        -0.02935690
  eigenvalues    EBANDS =     -3298.18258056
  atomic energy  EATOM  =     59055.46611198
  Solvation  Ediel_sol  =         0.00000000
  ---------------------------------------------------
  free energy    TOTEN  =      -394.59279161 eV

  energy without entropy =     -394.56343471  energy(sigma->0) =     -394.58300598


--------------------------------------------------------------------------------------------------------




--------------------------------------- Iteration      1(  14)  ---------------------------------------


    POTLOK:  cpu time    0.6086: real time    0.4704
    SETDIJ:  cpu time    0.0632: real time    0.0388
    EDDIAG:  cpu time   36.8091: real time   18.4514
  RMM-DIIS:  cpu time  138.1514: real time   69.8978
    ORTHCH:  cpu time    5.9802: real time   17.1463
       DOS:  cpu time    0.2758: real time    0.2847
    CHARGE:  cpu time    5.1018: real time    4.8467
    MIXING:  cpu time    0.0353: real time    0.0177
    --------------------------------------------
      LOOP:  cpu time  187.0256: real time  111.1539

 eigenvalue-minimisations  : 15896
 total energy-change (2. order) :-0.2245276E+01  (-0.1658396E+00)
 number of electron     754.9999804 magnetization      54.5144159
 augmentation part      278.6992921 magnetization      40.8836077

 DIPCOR: dipole corrections for dipol
 direction  3 min pos     1,
 dipolmoment           0.000000      0.000000      0.478711 electrons x Angstroem
 Tr[quadrupol]    -15365.376287

 energy correction for charged system         0.000000 eV
 dipol+quadrupol energy correction           -0.005731 eV
 added-field ion interaction        -14.549840 eV  (added to PSCEN)


 Broyden mixing:
  rms(total) = 0.14641E+01    rms(broyden)= 0.14640E+01
  rms(prec ) = 0.17086E+01
  weight for this iteration     100.00

 eigenvalues of (default mixing * dielectric matrix)
  average eigenvalue GAMMA=   0.6870
  2.2243  1.2019  0.7650  0.7406  0.3509  0.3509  0.2920  0.0758  0.1812

 Free energy of the ion-electron system (eV)
  ---------------------------------------------------
  alpha Z        PSCENC =       953.64740738
  Ewald energy   TEWEN  =    444145.88373463
  -Hartree energ DENC   =   -503720.17378080
  -exchange      EXHF   =         0.00000000
  -V(xc)+E(xc)   XCENC  =     -1348.66766844
  PAW double counting   =     71652.92504513   -67860.08252767
  entropy T*S    EENTRO =        -0.06167753
[...]
      0.94981      0.92818     20.54769         0.004381      0.007295      0.001936
      0.98230      7.28078     20.53870         0.005038      0.000367      0.005984
      9.57477      9.58288     20.42921         0.001335     -0.002287      0.009434
      4.14108      8.08431     20.66250        -0.000075      0.003680     -0.003617
      1.37266      1.37257     12.08090        -0.024282     -0.001826     -0.009614
      1.37242      4.11772     12.08022        -0.050447     -0.007380      0.045501
      1.37267      6.86383     12.08000        -0.013088      0.020666     -0.034487
      1.37288      9.60959     12.08066         0.053532     -0.006928      0.047042
      4.11805      1.37253     12.08076        -0.013133     -0.047789      0.032241
      4.11808      4.11758     12.08002         0.004896      0.020899     -0.009624
      4.11802      6.86368     12.07963         0.004592      0.067486      0.029778
      4.11798      9.60957     12.08044        -0.009786      0.018009     -0.140761
      6.86378      1.37268     12.08060         0.017171      0.006350     -0.033817
      6.86395      4.11751     12.08007         0.063182      0.009189      0.048609
      6.86394      6.86343     12.07928         0.028371      0.040935      0.000908
      6.86377      9.60961     12.07981        -0.051131      0.029197      0.026035
      9.60938      1.37274     12.08074        -0.028179      0.093752      0.043532
      9.60936      4.11767     12.08034         0.009545     -0.009795     -0.145988
      9.60960      6.86359     12.07968         0.028293     -0.021768      0.008874
      9.60965      9.60964     12.08004        -0.023863     -0.025366      0.074677
     10.97834      0.00443     14.03187         0.002978     -0.002939     -0.000616
     10.96454      2.75459     14.05114         0.006273     -0.003717      0.005620
     10.97421      5.48348     14.04976         0.000966      0.002376      0.005109
      0.00819      8.22903     14.04031        -0.001651     -0.002844     -0.000627
      2.74529     10.96825     14.04863        -0.000532      0.003110      0.008962
      2.73019      2.73446     14.02994         0.001123      0.000445     -0.003774
      2.72963      5.50913     14.01861         0.004058     -0.008512      0.002132
      2.74592      8.25474     14.05076         0.000586      0.000650     -0.008928
      5.48221     10.97718     14.04670         0.000630      0.001438      0.002937
      5.50071      2.73811     14.02273        -0.006057     -0.000474     -0.001917
      5.51365      5.51584     14.01965         0.003553      0.001480      0.000139
      5.48120      8.26648     14.04311        -0.001518     -0.005695      0.000204
      8.22539      0.01657     14.03876        -0.002084     -0.001363      0.003586
      8.24904      2.75596     14.05491         0.003642     -0.001781     -0.012028
      8.26632      5.48697     14.04253        -0.007380     -0.004105     -0.002927
      8.23908      8.24411     14.03499        -0.002525     -0.006839      0.001380
      1.34115      1.35604     16.01385        -0.003729     -0.007901      0.006496
      1.35390      4.12753     15.98151        -0.004218     -0.000738     -0.008541
      1.37424      6.85975     16.04126        -0.002835     -0.002020      0.001224
      1.39645      9.60661     16.01783         0.002118     -0.006945     -0.004749
      4.12189      1.34370     15.96310        -0.000815      0.000137     -0.002822
      4.11936      4.15338     15.89234        -0.006477     -0.006756     -0.005519
      4.10336      6.90708     15.95811         0.001395     -0.004197     -0.006253
      4.10930      9.61861     16.13593         0.001012      0.005742      0.002777
      6.85867      1.39039     16.04294        -0.004931     -0.001335     -0.000553
      6.89906      4.11402     15.96265        -0.001208     -0.007619      0.000347
      6.90879      6.91312     15.98114        -0.004091     -0.001866      0.005946
      6.82496      9.63980     16.00997        -0.004702      0.004644      0.006566
      9.59566      1.41532     16.02746        -0.004387     -0.009971     -0.000260
      9.61597      4.12213     16.15051         0.001967     -0.004893     -0.000384
      9.62818      6.83097     16.01754         0.007572     -0.005763      0.005784
      9.60383      9.61674     15.97052         0.001853     -0.001333     -0.006486
     10.92083     10.93422     18.01193        -0.002481      0.001272      0.006668
      0.05771      2.67090     18.15873        -0.001357      0.005236      0.003031
      0.11428      5.55198     18.15949        -0.000605      0.000755     -0.009406
     10.93677      8.26890     18.01181         0.000859     -0.005160      0.004031
      2.65581      0.05661     18.14836         0.002578     -0.002574     -0.001856
      2.72648      2.76375     17.85493         0.000574     -0.004744     -0.006166
      2.87680      5.44462     18.03400         0.002605      0.000803      0.004057
      2.66850      8.14799     18.13771         0.005410     -0.010049      0.005579
      5.54217      0.11516     18.15075         0.004895     -0.000842     -0.005186
      5.43855      2.87769     17.97045        -0.001828      0.001556      0.001183
      5.52919      5.52898     17.80380         0.003259      0.001144      0.002008
      5.55610      8.20643     18.11217        -0.000867     -0.002898      0.004171
      8.25546     10.95605     18.01813         0.003835     -0.004355      0.001233
      8.13190      2.69535     18.16770        -0.003536     -0.002263      0.004548
      8.19111      5.56620     18.13639         0.001494     -0.007340      0.003282
      8.27146      8.28587     18.00177        -0.008553     -0.008908      0.000249
 -----------------------------------------------------------------------------------
    total drift:                               -0.001533      0.004208      0.018699


--------------------------------------------------------------------------------------------------------



  FREE ENERGIE OF THE ION-ELECTRON SYSTEM (eV)
  ---------------------------------------------------
  free  energy   TOTEN  =      -486.54577618 eV

  energy  without entropy=     -486.39667582  energy(sigma->0) =     -486.49607606
 


--------------------------------------------------------------------------------------------------------


    POTLOK:  cpu time    0.7419: real time    0.7287


--------------------------------------------------------------------------------------------------------


 NEB: the previous image is higher in energy: F
 NEB: the next image is higher in energy    : F
 NEB: image is at an extrema
 NEB: diff energy (min, max):     0.158406    1.169258

 NEB: Tangent
 ----------------------------------------------
     -0.16385      0.23088      0.13555
     -0.01985      0.01264     -0.00006
      0.52725     -0.58903     -0.13468
     -0.01894      0.02240      0.00964
     -0.02022      0.02905      0.00109
      0.02513      0.04851      0.01261
      0.01592     -0.05201      0.00506
     -0.01050     -0.01734     -0.00967
      0.07422     -0.11990     -0.00960
      0.03485     -0.01625      0.00307
      0.00128     -0.04140     -0.00710
     -0.03039     -0.01673      0.00205
      0.29822      0.02943     -0.10742
     -0.00667      0.04175      0.01249
     -0.00641      0.02307      0.00146
      0.02374      0.05129      0.01057
      0.05305     -0.05220     -0.00496
      0.00449      0.00150     -0.00810
      0.08229     -0.13150     -0.00784
      0.03329     -0.01735      0.00302
     -0.03066     -0.03828     -0.00914
     -0.00002      0.00008      0.00228
      0.00006      0.00019      0.00254
     -0.00001     -0.00004      0.00259
     -0.00008     -0.00012      0.00234
      0.00006      0.00008      0.00234
      0.00006      0.00025      0.00264
      0.00009      0.00002      0.00276
      0.00010     -0.00012      0.00245
     -0.00002      0.00005      0.00245
     -0.00010      0.00028      0.00268
     -0.00010      0.00010      0.00296
     -0.00003     -0.00014      0.00272
     -0.00011      0.00004      0.00239
     -0.00012      0.00022      0.00257
     -0.00021      0.00004      0.00277
     -0.00021     -0.00013      0.00261
     -0.00880     -0.01327     -0.00048
     -0.01920     -0.01718     -0.00273
     -0.00503     -0.00802     -0.00664
      0.00181     -0.00758      0.00567
     -0.00250     -0.00758      0.00234
     -0.00754     -0.01365     -0.00351
      0.00336     -0.00522     -0.00440
      0.00093      0.00068     -0.00510
     -0.00268      0.00563      0.00640
     -0.00638      0.00173      0.00151
      0.00394      0.00508     -0.00015
      0.00949      0.01251      0.00028
     -0.00736      0.00231      0.01120
     -0.01280     -0.00428      0.00929
     -0.00008     -0.00151      0.00273
      0.00959      0.00567      0.00339
     -0.02212     -0.03463     -0.01039
     -0.02709     -0.02887     -0.04595
      0.01272     -0.02487     -0.00467
      0.00372     -0.02434      0.00827
     -0.00633      0.00523      0.00767
     -0.00366     -0.00952     -0.00711
      0.01558      0.01526     -0.02594
      0.00353      0.00612      0.00667
     -0.03566      0.02377      0.02863
     -0.01235      0.00305     -0.00190
      0.01856      0.01622     -0.00446
      0.00389      0.01510      0.01011
     -0.02276     -0.00765      0.01304
     -0.01718     -0.01176      0.01087
      0.01236     -0.01336      0.00525
      0.00480     -0.00939      0.01113
     -0.01386     -0.04624      0.00639
     -0.02897     -0.04445     -0.00457
      0.02674     -0.05547      0.00400
      0.03676     -0.05551      0.01710
     -0.01019     -0.01639     -0.00040
     -0.04524     -0.02011     -0.04237
     -0.00807     -0.02569     -0.06294
      0.02629     -0.04679     -0.00845
     -0.02293      0.04506      0.01539
     -0.10134      0.06489      0.09753
      0.01559      0.03686     -0.04739
      0.02679      0.02780      0.00744
     -0.01838      0.01657      0.00673
     -0.07717      0.01762      0.01295
      0.00876      0.01549      0.00639
      0.03224      0.01404      0.00214

 NEB: forces: par spring, perp REAL, dneb     0.582712    0.073728    0.000000
 NEB: distance to prev, next image, angle between     0.941896    1.058438  103.625821
 NEB: projections on to tangent (spring, REAL)     0.582712    0.013948

 stress matrix after NEB project (eV)
    -41.26017      0.70214      0.15263
      0.70214    -39.59230     -0.91878
      0.15263     -0.91878    -14.09789
  FORCES: max atom, RMS     0.030350    0.008139
  FORCE total and by dimension    0.075035    0.022378
  Stress total and by dimension   58.918784   41.260172
 Quasi-Newton relaxation of ions (Broydens 2nd method)
  g(Force)  = 0.111E-02   g(Stress)= 0.000E+00

 Reset! Starting new Quasi-Newton update for ions 


--------------------------------------------------------------------------------------------------------


  
 reached required accuracy - stopping structural energy minimisation
     LOOP+:  cpu time13682.7671: real time 7730.6869
    4ORBIT:  cpu time    0.0000: real time    0.0000
 


 total charge     
 
# of ion       s       p       d       tot
------------------------------------------
    1        1.347   2.143   0.000   3.490
    2        1.316   2.367   0.000   3.683
    3        1.352   2.266   0.000   3.618
    4        1.314   2.366   0.000   3.679
    5        1.301   2.347   0.000   3.648
    6        1.300   2.343   0.000   3.644
    7        1.313   2.367   0.000   3.680
    8        1.302   2.346   0.000   3.649
    9        1.301   2.347   0.000   3.648
   10        1.296   2.337   0.000   3.634
   11        1.313   2.372   0.000   3.685
   12        1.641   3.441   0.000   5.082
   13        1.639   3.457   0.000   5.097
   14        1.640   3.440   0.000   5.080
   15        1.636   3.439   0.000   5.075
   16        1.636   3.439   0.000   5.075
   17        1.640   3.440   0.000   5.080
   18        1.636   3.439   0.000   5.075
   19        1.636   3.440   0.000   5.075
   20        1.635   3.438   0.000   5.072
   21        1.641   3.440   0.000   5.080
   22        0.443   0.304   8.523   9.270
   23        0.443   0.307   8.517   9.267
   24        0.443   0.305   8.523   9.272
   25        0.446   0.305   8.519   9.270
   26        0.443   0.306   8.519   9.268
   27        0.440   0.304   8.525   9.269
   28        0.443   0.306   8.518   9.267
   29        0.442   0.307   8.527   9.277
   30        0.443   0.305   8.523   9.271
   31        0.443   0.306   8.517   9.266
   32        0.443   0.304   8.523   9.269
   33        0.444   0.305   8.520   9.270
   34        0.445   0.305   8.520   9.270
   35        0.442   0.308   8.526   9.276
   36        0.444   0.305   8.522   9.270
   37        0.440   0.306   8.519   9.265
   38        0.478   0.462   8.477   9.417
   39        0.480   0.468   8.469   9.416
   40        0.482   0.469   8.472   9.423
   41        0.477   0.463   8.474   9.414
   42        0.481   0.469   8.468   9.419
   43        0.481   0.469   8.467   9.417
   44        0.483   0.475   8.469   9.426
   45        0.483   0.471   8.468   9.422
   46        0.483   0.471   8.469   9.423
   47        0.481   0.471   8.470   9.423
   48        0.480   0.470   8.469   9.419
   49        0.481   0.470   8.471   9.421
   50        0.478   0.463   8.476   9.416
   51        0.483   0.470   8.467   9.420
   52        0.481   0.468   8.474   9.423
   53        0.481   0.467   8.470   9.418
   54        0.490   0.457   8.493   9.440
   55        0.480   0.451   8.493   9.424
   56        0.484   0.452   8.486   9.422
   57        0.477   0.453   8.484   9.414
   58        0.470   0.445   8.503   9.418
   59        0.483   0.477   8.486   9.446
   60        0.480   0.454   8.492   9.426
   61        0.471   0.427   8.479   9.377
   62        0.487   0.455   8.486   9.428
   63        0.484   0.458   8.489   9.431
   64        0.488   0.464   8.482   9.434
   65        0.479   0.455   8.485   9.419
   66        0.476   0.452   8.483   9.411
   67        0.468   0.424   8.477   9.369
   68        0.479   0.454   8.484   9.418
   69        0.492   0.458   8.500   9.451
   70        0.474   0.535   8.533   9.543
   71        0.449   0.493   8.499   9.442
   72        0.448   0.497   8.498   9.443
   73        0.472   0.530   8.535   9.537
   74        0.445   0.492   8.503   9.440
   75        0.537   0.570   8.521   9.629
   76        0.451   0.421   8.556   9.428
   77        0.453   0.510   8.497   9.460
   78        0.446   0.497   8.501   9.444
   79        0.518   0.530   8.508   9.556
   80        0.458   0.374   8.587   9.419
   81        0.454   0.508   8.501   9.464
   82        0.471   0.528   8.534   9.533
   83        0.448   0.495   8.499   9.442
   84        0.450   0.498   8.503   9.451
   85        0.469   0.528   8.534   9.532
--------------------------------------------------
tot         60.747  87.640 543.983 692.370
 


 magnetization (x)
 
# of ion       s       p       d       tot
------------------------------------------
    1        0.000   0.000   0.000   0.000
    2        0.000  -0.000   0.000  -0.000
    3        0.000   0.000   0.000   0.000
    4        0.000  -0.000   0.000  -0.000
    5        0.000  -0.000   0.000  -0.000
    6        0.000  -0.000   0.000  -0.000
    7        0.000  -0.000   0.000  -0.000
    8        0.000  -0.000   0.000  -0.000
    9        0.000  -0.000   0.000  -0.000
   10       -0.000   0.000   0.000   0.000
   11        0.000  -0.000   0.000  -0.000
   12       -0.000  -0.000   0.000  -0.000
   13        0.000   0.000   0.000   0.000
   14       -0.000  -0.000   0.000  -0.000
   15       -0.000  -0.000   0.000  -0.000
   16       -0.000  -0.000   0.000  -0.000
   17       -0.000  -0.000   0.000  -0.000
   18       -0.000  -0.000   0.000  -0.000
   19       -0.000  -0.000   0.000  -0.000
   20        0.000  -0.000   0.000  -0.000
   21       -0.000  -0.000   0.000  -0.000
   22        0.000  -0.000   0.000   0.000
   23       -0.000  -0.000   0.001   0.001
   24        0.000  -0.000   0.000   0.000
   25       -0.000  -0.000   0.000   0.000
   26       -0.000  -0.000   0.001   0.001
   27       -0.000  -0.000   0.000   0.000
   28       -0.000  -0.000   0.001   0.001
   29       -0.000  -0.000   0.000   0.000
   30        0.000  -0.000   0.000   0.000
   31       -0.000  -0.000   0.001   0.001
   32       -0.000  -0.000   0.000   0.000
   33       -0.000  -0.000   0.000   0.000
   34       -0.000  -0.000   0.000   0.000
   35       -0.000  -0.000   0.000   0.000
   36       -0.000  -0.000   0.000   0.000
   37       -0.000  -0.000   0.000   0.000
   38       -0.000  -0.000   0.000   0.000
   39       -0.000  -0.000   0.000   0.000
   40       -0.000  -0.000   0.000   0.000
   41       -0.000  -0.000   0.000   0.000
   42       -0.000  -0.000   0.000   0.000
   43       -0.000  -0.000   0.001   0.001
   44        0.000  -0.000   0.001   0.001
   45       -0.000  -0.000   0.000   0.000
   46       -0.000  -0.000   0.001   0.000
   47        0.000  -0.000   0.001   0.001
   48       -0.000  -0.000   0.001   0.001
   49       -0.000  -0.000   0.000   0.000
   50       -0.000  -0.000   0.000   0.000
   51       -0.000  -0.000   0.000   0.000
   52       -0.000  -0.000   0.000   0.000
   53       -0.000  -0.000   0.000   0.000
   54       -0.000  -0.000   0.000   0.000
   55       -0.000  -0.000   0.000   0.000
   56       -0.000  -0.000   0.000   0.000
   57       -0.000  -0.000   0.000   0.000
   58       -0.000  -0.000   0.000   0.000
   59       -0.000  -0.000   0.000   0.000
   60       -0.000  -0.000   0.000   0.000
   61       -0.000  -0.000   0.000   0.000
   62       -0.000  -0.000   0.000   0.000
   63       -0.000  -0.000   0.000   0.000
   64       -0.000  -0.000   0.000   0.000
   65       -0.000  -0.000   0.000   0.000
   66       -0.000  -0.000   0.000   0.000
   67       -0.000  -0.000   0.000   0.000
   68       -0.000  -0.000   0.000   0.000
   69       -0.000  -0.000   0.000   0.000
   70       -0.000  -0.000   0.000   0.000
   71       -0.000  -0.000   0.000   0.000
   72       -0.000  -0.000   0.000   0.000
   73       -0.000  -0.000   0.000   0.000
   74       -0.000  -0.000   0.000   0.000
   75       -0.000  -0.000   0.000   0.000
   76       -0.000  -0.000   0.000   0.000
   77       -0.000  -0.000   0.000   0.000
   78       -0.000  -0.000   0.000   0.000
   79       -0.000  -0.000   0.000   0.000
   80       -0.000  -0.000   0.000   0.000
   81       -0.000  -0.000   0.000   0.000
   82       -0.000  -0.000   0.000   0.000
   83       -0.000  -0.000   0.000   0.000
   84       -0.000  -0.000   0.000   0.000
   85       -0.000  -0.000   0.000   0.000
--------------------------------------------------
tot         -0.000  -0.001   0.021   0.020
 

 total amount of memory used by VASP MPI-rank0   538902. kBytes
=======================================================================

   base      :      30000. kBytes
   nonlr-proj:      14623. kBytes
   fftplans  :      18152. kBytes
   grid      :      48955. kBytes
   one-center:        279. kBytes
   wavefun   :     426893. kBytes
 
  
  
 General timing and accounting informations for this job:
 ========================================================
  
                  Total CPU time used (sec):    13778.872
                            User time (sec):    13177.841
                          System time (sec):      601.030
                         Elapsed time (sec):     8221.339
  
                   Maximum memory used (kb):      857132.
                   Average memory used (kb):           0.
  
                          Minor page faults:      1675737
                          Major page faults:            8
                 Voluntary context switches:        81391
