 vasp.5.4.4.18Apr17-6-g9f103f2a35 (build May 01 2020 14:57:12) complex          
  
 executed on             LinuxIFC date 2021.09.03  06:29:44
 running on   96 total cores
 distrk:  each k-point on   96 cores,    1 groups
 distr:  one band on NCORES_PER_BAND=   1 cores,   96 groups


--------------------------------------------------------------------------------------------------------


 INCAR:
 POTCAR:    PAW_PBE Pd 04Jan2005                  
 POTCAR:    PAW_PBE N 08Apr2002                   
 POTCAR:    PAW_PBE O 08Apr2002                   

 ----------------------------------------------------------------------------- 
|                                                                             |
|           W    W    AA    RRRRR   N    N  II  N    N   GGGG   !!!           |
|           W    W   A  A   R    R  NN   N  II  NN   N  G    G  !!!           |
|           W    W  A    A  R    R  N N  N  II  N N  N  G       !!!           |
|           W WW W  AAAAAA  RRRRR   N  N N  II  N  N N  G  GGG   !            |
|           WW  WW  A    A  R   R   N   NN  II  N   NN  G    G                |
|           W    W  A    A  R    R  N    N  II  N    N   GGGG   !!!           |
|                                                                             |
|      For optimal performance we recommend to set                            |
|        NCORE= 4 - approx SQRT( number of cores)                             |
|      NCORE specifies how many cores store one orbital (NPAR=cpu/NCORE).     |
|      This setting can  greatly improve the performance of VASP for DFT.     |
|      The default,   NCORE=1            might be grossly inefficient         |
|      on modern multi-core architectures or massively parallel machines.     |
|      Do your own testing !!!!                                               |
|      Unfortunately you need to use the default for GW and RPA calculations. |
|      (for HF NCORE is supported but not extensively tested yet)             |
|                                                                             |
 ----------------------------------------------------------------------------- 

 POTCAR:    PAW_PBE Pd 04Jan2005                  
   VRHFIN =Pd : s1 d9                                                           
   LEXCH  = PE                                                                  
   EATOM  =   809.7530 eV,   59.5152 Ry                                         
                                                                                
   TITEL  = PAW_PBE Pd 04Jan2005                                                
   LULTRA =        F    use ultrasoft PP ?                                      
   IUNSCR =        1    unscreen: 0-lin 1-nonlin 2-no                           
   RPACOR =    2.000    partial core radius                                     
   POMASS =  106.420; ZVAL   =   10.000    mass and valenz                      
   RCORE  =    2.600    outmost cutoff radius                                   
   RWIGS  =    2.710; RWIGS  =    1.434    wigner-seitz radius (au A)           
   ENMAX  =  250.925; ENMIN  =  188.194 eV                                      
   ICORE  =        3    local potential                                         
   LCOR   =        T    correct aug charges                                     
   LPAW   =        T    paw PP                                                  
   EAUG   =  416.230                                                            
   DEXC   =    0.000                                                            
   RMAX   =    2.653    core radius for proj-oper                               
   RAUG   =    1.300    factor for augmentation sphere                          
   RDEP   =    2.734    radius for radial grids                                 
   RDEPT  =    2.103    core radius for aug-charge                              
                                                                                
   Atomic configuration                                                         
   12 entries                                                                   
     n  l   j            E        occ.                                          
     1  0  0.50    -24164.6631   2.0000                                         
     2  0  0.50     -3530.9218   2.0000                                         
     2  1  1.50     -3165.6822   6.0000                                         
     3  0  0.50      -639.4577   2.0000                                         
     3  1  1.50      -519.4532   6.0000                                         
     3  2  2.50      -328.9757  10.0000                                         
     4  0  0.50       -88.7014   2.0000                                         
     4  1  1.50       -54.4540   6.0000                                         
     4  2  2.50        -6.6878   9.0000                                         
     5  0  0.50        -4.3543   1.0000                                         
     5  1  0.50        -1.3606   0.0000                                         
     4  3  2.50        -1.3606   0.0000                                         
   Description                                                                  
     l       E           TYP  RCUT    TYP  RCUT                                 
     2     -6.6878251     23  2.400                                             
     2     -8.0484077     23  2.400                                             
     0     -4.3542939     23  2.400                                             
     0      4.3406793     23  2.400                                             
     1     -4.0817478     23  2.600                                             
     1     15.8380318     23  2.600                                             
     3     -4.0817478     23  2.400                                             
  local pseudopotential read in
  partial core-charges read in
  partial kinetic energy density read in
  atomic valenz-charges read in
  non local Contribution for L=           2  read in
    real space projection operators read in
  non local Contribution for L=           2  read in
    real space projection operators read in
  non local Contribution for L=           0  read in
    real space projection operators read in
  non local Contribution for L=           0  read in
    real space projection operators read in
  non local Contribution for L=           1  read in
    real space projection operators read in
  non local Contribution for L=           1  read in
    real space projection operators read in
    PAW grid and wavefunctions read in
 
   number of l-projection  operators is LMAX  =           6
   number of lm-projection operators is LMMAX =          18
 
 POTCAR:    PAW_PBE N 08Apr2002                   
   VRHFIN =N: s2p3                                                              
   LEXCH  = PE                                                                  
   EATOM  =   264.5486 eV,   19.4438 Ry                                         
                                                                                
   TITEL  = PAW_PBE N 08Apr2002                                                 
   LULTRA =        F    use ultrasoft PP ?                                      
   IUNSCR =        1    unscreen: 0-lin 1-nonlin 2-no                           
   RPACOR =    1.200    partial core radius                                     
   POMASS =   14.001; ZVAL   =    5.000    mass and valenz                      
   RCORE  =    1.500    outmost cutoff radius                                   
   RWIGS  =    1.400; RWIGS  =    0.741    wigner-seitz radius (au A)           
   ENMAX  =  400.000; ENMIN  =  300.000 eV                                      
   ICORE  =        2    local potential                                         
   LCOR   =        T    correct aug charges                                     
   LPAW   =        T    paw PP                                                  
   EAUG   =  627.112                                                            
   DEXC   =    0.000                                                            
   RMAX   =    1.529    core radius for proj-oper                               
   RAUG   =    1.300    factor for augmentation sphere                          
   RDEP   =    1.514    radius for radial grids                                 
   RDEPT  =    1.338    core radius for aug-charge                              
                                                                                
   Atomic configuration                                                         
    4 entries                                                                   
     n  l   j            E        occ.                                          
     1  0  0.50      -384.7179   2.0000                                         
     2  0  0.50       -18.5828   2.0000                                         
     2  1  0.50        -7.0898   3.0000                                         
     3  2  1.50        -6.8029   0.0000                                         
   Description                                                                  
     l       E           TYP  RCUT    TYP  RCUT                                 
     0    -18.5828119     23  1.200                                             
     0    -13.5018863     23  1.200                                             
     1     -7.0897853     23  1.500                                             
     1      9.5240782     23  1.500                                             
     2     -6.8029130      7  1.500                                             
  local pseudopotential read in
  partial core-charges read in
  partial kinetic energy density read in
  atomic valenz-charges read in
  non local Contribution for L=           0  read in
    real space projection operators read in
  non local Contribution for L=           0  read in
    real space projection operators read in
  non local Contribution for L=           1  read in
    real space projection operators read in
  non local Contribution for L=           1  read in
    real space projection operators read in
    PAW grid and wavefunctions read in
 
   number of l-projection  operators is LMAX  =           4
   number of lm-projection operators is LMMAX =           8
 
 POTCAR:    PAW_PBE O 08Apr2002                   
   VRHFIN =O: s2p4                                                              
   LEXCH  = PE                                                                  
   EATOM  =   432.3788 eV,   31.7789 Ry                                         
                                                                                
   TITEL  = PAW_PBE O 08Apr2002                                                 
   LULTRA =        F    use ultrasoft PP ?                                      
   IUNSCR =        1    unscreen: 0-lin 1-nonlin 2-no                           
   RPACOR =    1.200    partial core radius                                     
   POMASS =   16.000; ZVAL   =    6.000    mass and valenz                      
   RCORE  =    1.520    outmost cutoff radius                                   
   RWIGS  =    1.550; RWIGS  =    0.820    wigner-seitz radius (au A)           
   ENMAX  =  400.000; ENMIN  =  300.000 eV                                      
   ICORE  =        2    local potential                                         
   LCOR   =        T    correct aug charges                                     
   LPAW   =        T    paw PP                                                  
   EAUG   =  605.392                                                            
   DEXC   =    0.000                                                            
   RMAX   =    1.553    core radius for proj-oper                               
   RAUG   =    1.300    factor for augmentation sphere                          
   RDEP   =    1.550    radius for radial grids                                 
   RDEPT  =    1.329    core radius for aug-charge                              
                                                                                
   Atomic configuration                                                         
    4 entries                                                                   
     n  l   j            E        occ.                                          
     1  0  0.50      -514.6923   2.0000                                         
     2  0  0.50       -23.9615   2.0000                                         
     2  1  0.50        -9.0305   4.0000                                         
     3  2  1.50        -9.5241   0.0000                                         
   Description                                                                  
     l       E           TYP  RCUT    TYP  RCUT                                 
     0    -23.9615318     23  1.200                                             
     0     -9.5240782     23  1.200                                             
     1     -9.0304911     23  1.520                                             
     1      8.1634956     23  1.520                                             
     2     -9.5240782      7  1.500                                             
  local pseudopotential read in
  partial core-charges read in
  partial kinetic energy density read in
  kinetic energy density of atom read in
  atomic valenz-charges read in
  non local Contribution for L=           0  read in
    real space projection operators read in
  non local Contribution for L=           0  read in
    real space projection operators read in
  non local Contribution for L=           1  read in
    real space projection operators read in
  non local Contribution for L=           1  read in
    real space projection operators read in
    PAW grid and wavefunctions read in
 
   number of l-projection  operators is LMAX  =           4
   number of lm-projection operators is LMMAX =           8
 
 Optimization of the real space projectors (new method)

 maximal supplied QI-value         = 14.36
 optimisation between [QCUT,QGAM] = [ 10.20, 20.39] = [ 29.12,116.47] Ry 
 Optimized for a Real-space Cutoff    1.55 Angstroem

   l    n(q)    QCUT    max X(q) W(low)/X(q) W(high)/X(q)  e(spline) 
   2      9    10.197    59.108    0.12E-03    0.40E-04    0.11E-06
   2      9    10.197    58.101    0.12E-03    0.39E-04    0.12E-06
   0      9    10.197   102.235    0.41E-04    0.86E-05    0.83E-07
   0      9    10.197    58.388    0.37E-04    0.79E-05    0.78E-07
   1      9    10.197    22.191    0.25E-03    0.13E-03    0.84E-07
   1      9    10.197    15.590    0.21E-03    0.11E-03    0.74E-07
 Optimization of the real space projectors (new method)

 maximal supplied QI-value         = 25.13
 optimisation between [QCUT,QGAM] = [ 10.05, 20.36] = [ 28.30,116.06] Ry 
 Optimized for a Real-space Cutoff    1.70 Angstroem

   l    n(q)    QCUT    max X(q) W(low)/X(q) W(high)/X(q)  e(spline) 
   0     10    10.053    79.467    0.61E-04    0.98E-04    0.61E-06
   0     10    10.053    66.151    0.60E-04    0.98E-04    0.61E-06
   1     10    10.053     8.350    0.17E-03    0.71E-03    0.45E-05
   1     10    10.053     5.531    0.18E-03    0.77E-03    0.49E-05
 Optimization of the real space projectors (new method)

 maximal supplied QI-value         = 24.76
 optimisation between [QCUT,QGAM] = [ 10.15, 20.30] = [ 28.85,115.39] Ry 
 Optimized for a Real-space Cutoff    1.51 Angstroem

   l    n(q)    QCUT    max X(q) W(low)/X(q) W(high)/X(q)  e(spline) 
   0      9    10.150    20.381    0.17E-03    0.18E-03    0.41E-06
   0      9    10.150    15.268    0.18E-03    0.20E-03    0.43E-06
   1      9    10.150     5.964    0.16E-03    0.20E-03    0.36E-06
   1      9    10.150     5.382    0.13E-03    0.16E-03    0.33E-06
  PAW_PBE Pd 04Jan2005                  :
 energy of atom  1       EATOM= -809.7530
 kinetic energy error for atom=    0.0091 (will be added to EATOM!!)
  PAW_PBE N 08Apr2002                   :
 energy of atom  2       EATOM= -264.5486
 kinetic energy error for atom=    0.0736 (will be added to EATOM!!)
  PAW_PBE O 08Apr2002                   :
 energy of atom  3       EATOM= -432.3788
 kinetic energy error for atom=    0.1156 (will be added to EATOM!!)
 
 
 POSCAR: Pd N O                                  
  positions in direct lattice
  velocities in cartesian coordinates
 exchange correlation table for  LEXCH =        8
   RHO(1)=    0.500       N(1)  =     2000
   RHO(2)=  100.500       N(2)  =     4000
 


--------------------------------------------------------------------------------------------------------


 ion  position               nearest neighbor table
   1  0.125  0.125  0.403-   2 2.75   5 2.75   4 2.75  13 2.75  18 2.75  21 2.75  17 2.75  22 2.76

   2  0.125  0.375  0.403-   1 2.75   3 2.75   6 2.75  14 2.75  18 2.75  22 2.75  19 2.75  23 2.76

   3  0.125  0.625  0.403-   2 2.75   4 2.75   7 2.75  15 2.75  20 2.75  24 2.75  19 2.75  23 2.76

   4  0.125  0.875  0.403-   3 2.75   8 2.75   1 2.75  16 2.75  20 2.75  21 2.75  17 2.75  24 2.76

   5  0.375  0.125  0.403-   1 2.75   6 2.75   9 2.75   8 2.75  25 2.75  21 2.75  26 2.76  22 2.76

   6  0.375  0.375  0.403-   2 2.75   5 2.75   7 2.75  10 2.75  26 2.75  22 2.75  23 2.75  27 2.76

   7  0.375  0.625  0.403-   3 2.75   6 2.75   8 2.75  11 2.75  28 2.75  24 2.75  23 2.75  27 2.76

   8  0.375  0.875  0.403-   4 2.75   7 2.75  12 2.75   5 2.75  25 2.75  21 2.75  28 2.76  24 2.76

   9  0.625  0.125  0.403-   5 2.75  10 2.75  13 2.75  12 2.75  25 2.75  29 2.75  30 2.75  26 2.76

  10  0.625  0.375  0.403-   6 2.75   9 2.75  11 2.75  14 2.75  30 2.75  26 2.75  31 2.76  27 2.76

  11  0.625  0.625  0.403-   7 2.75  10 2.75  12 2.75  15 2.75  32 2.75  28 2.75  31 2.76  27 2.76

  12  0.625  0.875  0.403-   8 2.75  11 2.75  16 2.75   9 2.75  25 2.75  32 2.75  29 2.75  28 2.76

  13  0.875  0.125  0.403-   9 2.75  14 2.75   1 2.75  16 2.75  18 2.75  17 2.75  29 2.75  30 2.76

  14  0.875  0.375  0.403-  10 2.75  13 2.75  15 2.75   2 2.75  18 2.75  30 2.75  31 2.76  19 2.76

  15  0.875  0.625  0.403-  11 2.75  14 2.75  16 2.75   3 2.75  20 2.75  32 2.75  31 2.76  19 2.76

  16  0.875  0.875  0.403-  12 2.75  15 2.75  13 2.75   4 2.75  20 2.75  17 2.75  29 2.75  32 2.76

  17  1.000  0.000  0.468-  29 2.74  36 2.75  33 2.75  21 2.75  48 2.75  45 2.75  18 2.75  20 2.75
                            13 2.75  16 2.75   1 2.75   4 2.75
  18  0.000  0.250  0.468-  19 2.74  33 2.74  46 2.74  22 2.74  17 2.75   2 2.75  30 2.75  14 2.75
                            45 2.75   1 2.75  13 2.75  34 2.78
  19  0.001  0.500  0.468-  18 2.74  46 2.74  23 2.74  47 2.74  20 2.74  35 2.75  34 2.75   3 2.75
                             2 2.75  31 2.76  15 2.76  14 2.76
  20  0.000  0.750  0.468-  19 2.74  36 2.74  47 2.74  24 2.75  17 2.75   3 2.75  32 2.75  15 2.75
                            48 2.75   4 2.75  16 2.75  35 2.78
  21  0.250  0.000  0.468-  40 2.74  37 2.74  17 2.75  25 2.75  36 2.75  33 2.75   1 2.75   4 2.75
                            22 2.75   5 2.75  24 2.75   8 2.75
  22  0.250  0.251  0.468-  23 2.74  37 2.74  26 2.74  18 2.74  33 2.75   2 2.75   6 2.75  21 2.75
                            34 2.76   1 2.76   5 2.76  38 2.77
  23  0.251  0.500  0.468-  27 2.73  22 2.74  24 2.74  19 2.74  34 2.75  35 2.75   7 2.75   6 2.75
                            39 2.76  38 2.76   3 2.76   2 2.76
  24  0.250  0.749  0.468-  23 2.74  40 2.74  28 2.74  20 2.75  36 2.75   3 2.75   7 2.75  21 2.75
                            35 2.76   4 2.76   8 2.76  39 2.77
  25  0.500  0.000  0.468-  29 2.75  40 2.75  37 2.75  21 2.75  44 2.75  41 2.75   9 2.75  12 2.75
                             5 2.75   8 2.75  26 2.75  28 2.75
  26  0.500  0.251  0.468-  27 2.74  30 2.74  22 2.74  37 2.75  41 2.75   6 2.75  10 2.75  25 2.75
                             5 2.76   9 2.76  42 2.76  38 2.77
  27  0.499  0.500  0.468-  23 2.73  26 2.74  28 2.74  42 2.75  43 2.75  31 2.75  39 2.76  38 2.76
                             7 2.76   6 2.76  11 2.76  10 2.76
  28  0.500  0.749  0.468-  27 2.74  32 2.74  24 2.74  40 2.74  44 2.75   7 2.75  11 2.75  25 2.75
                             8 2.76  12 2.76  43 2.76  39 2.77
  29  0.750  0.000  0.468-  17 2.74  44 2.74  41 2.74  25 2.75  48 2.75  45 2.75  30 2.75  32 2.75
                            13 2.75  16 2.75   9 2.75  12 2.75
  30  0.750  0.250  0.468-  41 2.74  31 2.74  26 2.74  46 2.75  45 2.75  18 2.75  29 2.75  10 2.75
                            14 2.75   9 2.75  13 2.76  42 2.77
  31  0.750  0.500  0.468-  30 2.74  32 2.74  47 2.75  46 2.75  27 2.75  43 2.75  42 2.75  11 2.76
                            10 2.76  19 2.76  15 2.76  14 2.76
  32  0.750  0.750  0.468-  44 2.74  31 2.74  28 2.74  47 2.75  20 2.75  48 2.75  29 2.75  11 2.75
                            15 2.75  12 2.75  16 2.76  43 2.77
  33  0.125  0.125  0.533-  45 2.74  18 2.74  22 2.75  17 2.75  54 2.75  21 2.75  37 2.75  36 2.75
                            34 2.75  49 2.76  53 2.76  50 2.76
  34  0.126  0.376  0.534-  35 2.72  38 2.73  54 2.75  23 2.75  19 2.75  33 2.75  46 2.76  22 2.76
                            50 2.76  55 2.76  51 2.76  18 2.78
  35  0.126  0.624  0.534-  34 2.72  39 2.73  56 2.75  23 2.75  19 2.75  36 2.75  47 2.75  24 2.76
                            52 2.76  51 2.76  55 2.76  20 2.78
  36  0.125  0.875  0.533-  48 2.74  20 2.74  24 2.75  17 2.75  56 2.75  21 2.75  40 2.75  35 2.75
                            33 2.75  49 2.76  53 2.76  52 2.76
  37  0.375  0.125  0.533-  22 2.74  21 2.74  26 2.75  58 2.75  25 2.75  54 2.75  41 2.75  33 2.75
                            40 2.75  38 2.75  53 2.75  57 2.75
  38  0.375  0.376  0.534-  39 2.72  34 2.73  42 2.73  58 2.74  54 2.75  37 2.75  27 2.76  23 2.76
                            26 2.77  22 2.77  59 2.83  55 2.84
  39  0.375  0.624  0.534-  38 2.72  35 2.73  43 2.74  60 2.74  56 2.75  40 2.75  27 2.76  23 2.76
                            28 2.77  24 2.77  59 2.83  55 2.84
  40  0.375  0.875  0.533-  24 2.74  21 2.74  28 2.74  60 2.75  25 2.75  56 2.75  44 2.75  36 2.75
                            37 2.75  39 2.75  53 2.75  57 2.75
  41  0.625  0.125  0.533-  58 2.74  30 2.74  29 2.74  45 2.74  26 2.75  37 2.75  25 2.75  44 2.75
                            61 2.76  42 2.76  57 2.76  62 2.76
  42  0.624  0.376  0.533-  43 2.72  38 2.73  58 2.75  27 2.75  31 2.75  59 2.75  62 2.76  41 2.76
                            46 2.76  63 2.76  26 2.76  30 2.77
  43  0.624  0.624  0.533-  42 2.72  39 2.74  60 2.75  27 2.75  31 2.75  59 2.76  44 2.76  64 2.76
                            47 2.76  28 2.76  63 2.76  32 2.77
  44  0.625  0.875  0.533-  60 2.74  32 2.74  29 2.74  48 2.74  28 2.75  40 2.75  25 2.75  41 2.75
                            61 2.76  43 2.76  57 2.76  64 2.76
  45  0.875  0.125  0.533-  46 2.74  33 2.74  41 2.74  17 2.75  29 2.75  30 2.75  48 2.75  18 2.75
                            50 2.75  62 2.75  49 2.75  61 2.75
  46  0.875  0.375  0.533-  45 2.74  19 2.74  18 2.74  31 2.75  30 2.75  63 2.75  47 2.75  34 2.76
                            50 2.76  51 2.76  62 2.76  42 2.76
  47  0.875  0.625  0.533-  48 2.74  19 2.74  20 2.74  31 2.75  32 2.75  63 2.75  46 2.75  35 2.75
                            52 2.76  51 2.76  64 2.76  43 2.76
  48  0.875  0.875  0.533-  47 2.74  36 2.74  44 2.74  17 2.75  29 2.75  32 2.75  45 2.75  20 2.75
                            52 2.75  64 2.75  49 2.75  61 2.75
  49  0.000  0.000  0.598-  52 2.74  50 2.74  53 2.74  61 2.75  45 2.75  48 2.75  33 2.76  36 2.76

  50  0.999  0.250  0.598-  62 2.73  49 2.74  54 2.75  51 2.75  45 2.75  46 2.76  33 2.76  34 2.76

  51  0.998  0.500  0.599-  63 2.69  55 2.69  52 2.75  50 2.75  46 2.76  47 2.76  34 2.76  35 2.76

  52  0.999  0.751  0.598-  64 2.73  49 2.74  56 2.75  51 2.75  48 2.75  47 2.76  36 2.76  35 2.76

  53  0.250  1.000  0.598-  56 2.73  54 2.73  57 2.74  49 2.74  37 2.75  40 2.75  33 2.76  36 2.76

  54  0.250  0.248  0.598-  53 2.73  34 2.75  38 2.75  33 2.75  37 2.75  50 2.75  58 2.75  55 2.77

  55  0.243  0.500  0.601-  65 2.00  51 2.69  34 2.76  35 2.76  54 2.77  56 2.77  38 2.84  39 2.84
                            59 2.91
  56  0.250  0.752  0.598-  53 2.73  35 2.75  39 2.75  36 2.75  40 2.75  52 2.75  60 2.75  55 2.77

  57  0.500  1.000  0.598-  60 2.73  58 2.73  53 2.74  61 2.75  40 2.75  37 2.75  44 2.76  41 2.76

  58  0.500  0.248  0.598-  57 2.73  41 2.74  38 2.74  62 2.75  37 2.75  42 2.75  54 2.75  59 2.77

  59  0.507  0.500  0.601-  66 2.14  63 2.70  42 2.75  43 2.76  58 2.77  60 2.77  38 2.83  39 2.83
                            55 2.91
  60  0.501  0.752  0.598-  57 2.73  44 2.74  39 2.74  64 2.75  40 2.75  43 2.75  56 2.75  59 2.77

  61  0.750  0.000  0.598-  64 2.74  62 2.74  57 2.75  49 2.75  45 2.75  48 2.75  41 2.76  44 2.76

  62  0.751  0.250  0.598-  50 2.73  61 2.74  58 2.75  63 2.75  45 2.75  42 2.76  46 2.76  41 2.76

  63  0.753  0.500  0.598-  51 2.69  59 2.70  47 2.75  64 2.75  46 2.75  62 2.75  42 2.76  43 2.76

  64  0.751  0.750  0.598-  52 2.73  61 2.74  60 2.75  63 2.75  48 2.75  43 2.76  47 2.76  44 2.76

  65  0.310  0.501  0.663-  67 1.22  66 1.30  55 2.00
  66  0.428  0.501  0.666-  65 1.30  59 2.14
  67  0.248  0.501  0.697-  65 1.22
 
  LATTYP: Found a simple tetragonal cell.
 ALAT       =    10.9820000000
 C/A-ratio  =     2.7317428519
  
  Lattice vectors:
  
 A1 = (  10.9820000000,   0.0000000000,   0.0000000000)
 A2 = (   0.0000000000,  10.9820000000,   0.0000000000)
 A3 = (   0.0000000000,   0.0000000000,  30.0000000000)


Analysis of symmetry for initial positions (statically):
=====================================================================
 Subroutine PRICEL returns:
 Original cell was already a primitive cell.
 

 Routine SETGRP: Setting up the symmetry group for a 
 simple tetragonal supercell.


 Subroutine GETGRP returns: Found  1 space group operations
 (whereof  1 operations were pure point group operations)
 out of a pool of 16 trial point group operations.


The static configuration has the point symmetry C_1 .


Analysis of symmetry for dynamics (positions and initial velocities):
=====================================================================
 Subroutine PRICEL returns:
 Original cell was already a primitive cell.
 

 Routine SETGRP: Setting up the symmetry group for a 
 simple tetragonal supercell.


 Subroutine GETGRP returns: Found  1 space group operations
 (whereof  1 operations were pure point group operations)
 out of a pool of 16 trial point group operations.


The dynamic configuration has the point symmetry C_1 .


Analysis of constrained symmetry for selective dynamics:
=====================================================================
 Subroutine PRICEL returns:
 Original cell was already a primitive cell.
 

 Routine SETGRP: Setting up the symmetry group for a 
 simple tetragonal supercell.


 Subroutine GETGRP returns: Found  1 space group operations
 (whereof  1 operations were pure point group operations)
 out of a pool of 16 trial point group operations.


The constrained configuration has the point symmetry C_1 .


Analysis of structural, dynamic, and magnetic symmetry:
=====================================================================
 Subroutine PRICEL returns:
 Original cell was already a primitive cell.
 

 Routine SETGRP: Setting up the symmetry group for a 
 simple tetragonal supercell.


 Subroutine GETGRP returns: Found  1 space group operations
 (whereof  1 operations were pure point group operations)
 out of a pool of 16 trial point group operations.


The magnetic configuration has the point symmetry C_1 .


 Subroutine INISYM returns: Found  1 space group operations
 (whereof  1 operations are pure point group operations),
 and found     1 'primitive' translations

 
 
 KPOINTS: K-Point Grid                            

Automatic generation of k-mesh.
Space group operators:
 irot       det(A)        alpha          n_x          n_y          n_z        tau_x        tau_y        tau_z
    1     1.000000     0.000001     1.000000     0.000000     0.000000     0.000000     0.000000     0.000000
 
 Subroutine IBZKPT returns following result:
 ===========================================
 
 Found      8 irreducible k-points:
 
 Following reciprocal coordinates:
            Coordinates               Weight
  0.125000  0.125000  0.000000      2.000000
  0.375000  0.125000  0.000000      2.000000
 -0.375000  0.125000  0.000000      2.000000
 -0.125000  0.125000  0.000000      2.000000
  0.125000  0.375000  0.000000      2.000000
  0.375000  0.375000  0.000000      2.000000
 -0.375000  0.375000  0.000000      2.000000
 -0.125000  0.375000  0.000000      2.000000
 
 Following cartesian coordinates:
            Coordinates               Weight
  0.011382  0.011382  0.000000      2.000000
  0.034147  0.011382  0.000000      2.000000
 -0.034147  0.011382  0.000000      2.000000
 -0.011382  0.011382  0.000000      2.000000
  0.011382  0.034147  0.000000      2.000000
  0.034147  0.034147  0.000000      2.000000
 -0.034147  0.034147  0.000000      2.000000
 -0.011382  0.034147  0.000000      2.000000
 


--------------------------------------------------------------------------------------------------------




 Dimension of arrays:
   k-points           NKPTS =      8   k-points in BZ     NKDIM =      8   number of bands    NBANDS=    480
   number of dos      NEDOS =   1200   number of ions     NIONS =     67
   non local maximal  LDIM  =      6   non local SUM 2l+1 LMDIM =     18
   total plane-waves  NPLWV = ******
   max r-space proj   IRMAX =   5807   max aug-charges    IRDMAX=  13820
   dimension x,y,z NGX =    72 NGY =   72 NGZ =  196
   dimension x,y,z NGXF=   144 NGYF=  144 NGZF=  392
   support grid    NGXF=   144 NGYF=  144 NGZF=  392
   ions per type =              64   1   2
   NGX,Y,Z   is equivalent  to a cutoff of  10.90, 10.90, 10.86 a.u.
   NGXF,Y,Z  is equivalent  to a cutoff of  21.80, 21.80, 21.72 a.u.

 SYSTEM =  Pd_100_surface                          
 POSCAR =  Pd N O                                  

 Startparameter for this run:
   NWRITE =      2    write-flag & timer
   PREC   = accura    normal or accurate (medium, high low for compatibility)
   ISTART =      0    job   : 0-new  1-cont  2-samecut
   ICHARG =      2    charge: 1-file 2-atom 10-const
   ISPIN  =      2    spin polarized calculation?
   LNONCOLLINEAR =      F non collinear calculations
   LSORBIT =      F    spin-orbit coupling
   INIWAV =      1    electr: 0-lowe 1-rand  2-diag
   LASPH  =      F    aspherical Exc in radial PAW
   METAGGA=      F    non-selfconsistent MetaGGA calc.

 Electronic Relaxation 1
   ENCUT  =  400.0 eV  29.40 Ry    5.42 a.u.  17.91 17.91 48.92*2*pi/ulx,y,z
   ENINI  =  400.0     initial cutoff
   ENAUG  =  627.1 eV  augmentation charge cutoff
   NELM   =    100;   NELMIN=  2; NELMDL=  0     # of ELM steps 
   EDIFF  = 0.1E-04   stopping-criterion for ELM
   LREAL  =      T    real-space projection
   NLSPLINE    = F    spline interpolate recip. space projectors
   LCOMPAT=      F    compatible to vasp.4.4
   GGA_COMPAT  = T    GGA compatible to vasp.4.4-vasp.4.6
   LMAXPAW     = -100 max onsite density
   LMAXMIX     =    2 max onsite mixed and CHGCAR
   VOSKOWN=      0    Vosko Wilk Nusair interpolation
   ROPT   =   -0.00025  -0.00025  -0.00025
 Ionic relaxation
   EDIFFG = -.2E-01   stopping-criterion for IOM
   NSW    =    100    number of steps for IOM
   NBLOCK =      1;   KBLOCK =    100    inner block; outer block 
   IBRION =      2    ionic relax: 0-MD 1-quasi-New 2-CG
   NFREE  =      1    steps in history (QN), initial steepest desc. (CG)
   ISIF   =      2    stress and relaxation
   IWAVPR =     11    prediction:  0-non 1-charg 2-wave 3-comb
   ISYM   =      2    0-nonsym 1-usesym 2-fastsym
   LCORR  =      T    Harris-Foulkes like correction to forces

   POTIM  = 0.5000    time-step for ionic-motion
   TEIN   =    0.0    initial temperature
   TEBEG  =    0.0;   TEEND  =   0.0 temperature during run
   SMASS  =  -3.00    Nose mass-parameter (am)
   estimated Nose-frequenzy (Omega)   =  0.10E-29 period in steps =****** mass=  -0.276E-26a.u.
   SCALEE = 1.0000    scale energy and forces
   NPACO  =    256;   APACO  = 16.0  distance and # of slots for P.C.
   PSTRESS=    0.0 pullay stress

  Mass of Ions in am
   POMASS = 106.42 14.00 16.00
  Ionic Valenz
   ZVAL   =  10.00  5.00  6.00
  Atomic Wigner-Seitz radii
   RWIGS  =  -1.00 -1.00 -1.00
  virtual crystal weights 
   VCA    =   1.00  1.00  1.00
   NELECT =     657.0000    total number of electrons
   NUPDOWN=      -1.0000    fix difference up-down

 DOS related values:
   EMIN   =  10.00;   EMAX   =-10.00  energy-range for DOS
   EFERMI =   0.00
   ISMEAR =     1;   SIGMA  =   0.20  broadening in eV -4-tet -1-fermi 0-gaus

 Electronic relaxation 2 (details)
   IALGO  =     68    algorithm
   LDIAG  =      T    sub-space diagonalisation (order eigenvalues)
   LSUBROT=      F    optimize rotation matrix (better conditioning)
   TURBO    =      0    0=normal 1=particle mesh
   IRESTART =      0    0=no restart 2=restart with 2 vectors
   NREBOOT  =      0    no. of reboots
   NMIN     =      0    reboot dimension
   EREF     =   0.00    reference energy to select bands
   IMIX   =      4    mixing-type and parameters
     AMIX     =   0.40;   BMIX     =  1.00
     AMIX_MAG =   1.60;   BMIX_MAG =  1.00
     AMIN     =   0.10
     WC   =   100.;   INIMIX=   1;  MIXPRE=   1;  MAXMIX= -45

 Intra band minimization:
   WEIMIN = 0.0010     energy-eigenvalue tresh-hold
   EBREAK =  0.52E-08  absolut break condition
   DEPER  =   0.30     relativ break condition  

   TIME   =   0.40     timestep for ELM

  volume/ion in A,a.u.               =      54.00       364.42
  Fermi-wavevector in a.u.,A,eV,Ry     =   0.927047  1.751865 11.693075  0.859417
  Thomas-Fermi vector in A             =   2.053075
 
 Write flags
   LWAVE        =      F    write WAVECAR
   LDOWNSAMPLE  =      F    k-point downsampling of WAVECAR
   LCHARG       =      F    write CHGCAR
   LVTOT        =      F    write LOCPOT, total local potential
   LVHAR        =      F    write LOCPOT, Hartree potential only
   LELF         =      F    write electronic localiz. function (ELF)
   LORBIT       =     11    0 simple, 1 ext, 2 COOP (PROOUT), +10 PAW based schemes


 Dipole corrections
   LMONO  =      F    monopole corrections only (constant potential shift)
   LDIPOL =      T    correct potential (dipole corrections)
   IDIPOL =      3    1-x, 2-y, 3-z, 4-all directions 
   EPSILON=  1.0000000 bulk dielectric constant

 Exchange correlation treatment:
   GGA     =    --    GGA type
   LEXCH   =     8    internal setting for exchange type
   VOSKOWN=      0    Vosko Wilk Nusair interpolation
   LHFCALC =     F    Hartree Fock is set to
   LHFONE  =     F    Hartree Fock one center treatment
   AEXX    =    0.0000 exact exchange contribution

 Linear response parameters
   LEPSILON=     F    determine dielectric tensor
   LRPA    =     F    only Hartree local field effects (RPA)
   LNABLA  =     F    use nabla operator in PAW spheres
   LVEL    =     F    velocity operator in full k-point grid
   LINTERFAST=   F  fast interpolation
   KINTER  =     0    interpolate to denser k-point grid
   CSHIFT  =0.1000    complex shift for real part using Kramers Kronig
   OMEGAMAX=  -1.0    maximum frequency
   DEG_THRESHOLD= 0.2000000E-02 threshold for treating states as degnerate
   RTIME   =   -0.100 relaxation time in fs
  (WPLASMAI=    0.000 imaginary part of plasma frequency in eV, 0.658/RTIME)
   DFIELD  = 0.0000000 0.0000000 0.0000000 field for delta impulse in time
 
 Orbital magnetization related:
   ORBITALMAG=     F  switch on orbital magnetization
   LCHIMAG   =     F  perturbation theory with respect to B field
   DQ        =  0.001000  dq finite difference perturbation B field
   LLRAUG    =     F  two centre corrections for induced B field



--------------------------------------------------------------------------------------------------------


 conjugate gradient relaxation of ions
   using selective dynamics as specified on POSCAR
 charge density and potential will be updated during run
 spin polarized calculation
 RMM-DIIS sequential band-by-band and
  variant of blocked Davidson during initial phase
 perform sub-space diagonalisation
    before iterative eigenvector-optimisation
 modified Broyden-mixing scheme, WC =      100.0
 initial mixing is a Kerker type mixing with AMIX =  0.4000 and BMIX =      1.0000
 Hartree-type preconditioning will be used
 using additional bands          151
 real space projection scheme for non local part
 use partial core corrections
 calculate Harris-corrections to forces 
   (improved forces if not selfconsistent)
 use gradient corrections 
 use of overlap-Matrix (Vanderbilt PP)
 Methfessel and Paxton  Order N= 1 SIGMA  =   0.20


--------------------------------------------------------------------------------------------------------


  energy-cutoff  :      400.00
  volume of cell :     3618.13
      direct lattice vectors                 reciprocal lattice vectors
    10.982000000  0.000000000  0.000000000     0.091058095  0.000000000  0.000000000
     0.000000000 10.982000000  0.000000000     0.000000000  0.091058095  0.000000000
     0.000000000  0.000000000 30.000000000     0.000000000  0.000000000  0.033333333

  length of vectors
    10.982000000 10.982000000 30.000000000     0.091058095  0.091058095  0.033333333


 
 k-points in units of 2pi/SCALE and weight: K-Point Grid                            
   0.01138226  0.01138226  0.00000000       0.125
   0.03414679  0.01138226  0.00000000       0.125
  -0.03414679  0.01138226  0.00000000       0.125
  -0.01138226  0.01138226  0.00000000       0.125
   0.01138226  0.03414679  0.00000000       0.125
   0.03414679  0.03414679  0.00000000       0.125
  -0.03414679  0.03414679  0.00000000       0.125
  -0.01138226  0.03414679  0.00000000       0.125
 
 k-points in reciprocal lattice and weights: K-Point Grid                            
   0.12500000  0.12500000  0.00000000       0.125
   0.37500000  0.12500000  0.00000000       0.125
  -0.37500000  0.12500000  0.00000000       0.125
  -0.12500000  0.12500000  0.00000000       0.125
   0.12500000  0.37500000  0.00000000       0.125
   0.37500000  0.37500000  0.00000000       0.125
  -0.37500000  0.37500000  0.00000000       0.125
  -0.12500000  0.37500000  0.00000000       0.125
 
 position of ions in fractional coordinates (direct lattice) 
   0.12499955  0.12499955  0.40293227
   0.12499955  0.37499864  0.40293227
   0.12499955  0.62499774  0.40293227
   0.12499955  0.87499683  0.40293227
   0.37499864  0.12499955  0.40293227
   0.37499864  0.37499864  0.40293227
   0.37499864  0.62499774  0.40293227
   0.37499864  0.87499683  0.40293227
   0.62499774  0.12499955  0.40293227
   0.62499774  0.37499864  0.40293227
   0.62499774  0.62499774  0.40293227
   0.62499774  0.87499683  0.40293227
   0.87499683  0.12499955  0.40293227
   0.87499683  0.37499864  0.40293227
   0.87499683  0.62499774  0.40293227
   0.87499683  0.87499683  0.40293227
   0.99987439  0.00002070  0.46799478
   0.00004089  0.25018917  0.46784033
   0.00094836  0.50000125  0.46828127
   0.00003180  0.74983824  0.46782973
   0.24991988  0.00000787  0.46801931
   0.24999051  0.25076776  0.46810151
   0.25078384  0.50000104  0.46827713
   0.24999593  0.74923888  0.46809795
   0.50002963  0.00000437  0.46792912
   0.49992754  0.25064864  0.46803603
   0.49945583  0.49999891  0.46829505
   0.49992307  0.74935202  0.46803406
   0.75003177  0.00001797  0.46802266
   0.74976011  0.25031860  0.46802364
   0.74968136  0.50000140  0.46827278
   0.74976475  0.74970800  0.46801277
   0.12474984  0.12544050  0.53264929
   0.12630741  0.37626824  0.53358030
   0.12625261  0.62380194  0.53355566
   0.12474170  0.87459866  0.53263798
   0.37496856  0.12521070  0.53262307
   0.37522594  0.37591730  0.53391767
   0.37522412  0.62405029  0.53392026
   0.37497327  0.87479205  0.53261735
   0.62515181  0.12524768  0.53265157
   0.62424330  0.37621172  0.53348072
   0.62428436  0.62384372  0.53345779
   0.62515978  0.87477644  0.53264545
   0.87505178  0.12516638  0.53275633
   0.87544184  0.37480666  0.53272530
   0.87543682  0.62522880  0.53271677
   0.87505215  0.87487635  0.53274934
   0.00006496  0.00001126  0.59783595
   0.99947741  0.24950622  0.59806897
   0.99797592  0.50003434  0.59850262
   0.99947174  0.75053124  0.59806317
   0.24999571  0.99999383  0.59770939
   0.24990407  0.24832673  0.59788631
   0.24281247  0.49993682  0.60142342
   0.24987674  0.75168191  0.59785560
   0.49981935  0.99999155  0.59775344
   0.50048281  0.24812662  0.59777706
   0.50736012  0.49993211  0.60089788
   0.50050665  0.75185716  0.59775815
   0.74988148  0.00001544  0.59782701
   0.75052183  0.24978795  0.59798706
   0.75310677  0.50003827  0.59817682
   0.75052863  0.75025236  0.59798184
   0.31042843  0.50087397  0.66330920
   0.42813674  0.50089911  0.66610707
   0.24825235  0.50139891  0.69708577
 
 position of ions in cartesian coordinates  (Angst):
   1.37274503  1.37274503 12.08796804
   1.37274503  4.11823509 12.08796804
   1.37274503  6.86372514 12.08796804
   1.37274503  9.60921520 12.08796804
   4.11823509  1.37274503 12.08796804
   4.11823509  4.11823509 12.08796804
   4.11823509  6.86372514 12.08796804
   4.11823509  9.60921520 12.08796804
   6.86372514  1.37274503 12.08796804
   6.86372514  4.11823509 12.08796804
   6.86372514  6.86372514 12.08796804
   6.86372514  9.60921520 12.08796804
   9.60921520  1.37274503 12.08796804
   9.60921520  4.11823509 12.08796804
   9.60921520  6.86372514 12.08796804
   9.60921520  9.60921520 12.08796804
  10.98062059  0.00022729 14.03984343
   0.00044907  2.74757751 14.03521003
   0.01041487  5.49101370 14.04843823
   0.00034923  8.23472359 14.03489185
   2.74462012  0.00008644 14.04057938
   2.74539583  2.75393152 14.04304525
   2.75410811  5.49101137 14.04831395
   2.74545531  8.22814133 14.04293846
   5.49132542  0.00004802 14.03787368
   5.49020427  2.75262332 14.04108097
   5.48502398  5.49098808 14.04885159
   5.49015520  8.22938388 14.04102167
   8.23684886  0.00019731 14.04067982
   8.23386556  2.74899885 14.04070932
   8.23300071  5.49101533 14.04818327
   8.23391644  8.23329322 14.04038308
   1.37000278  1.37758753 15.97947883
   1.38710792  4.13217779 16.00740914
   1.38650613  6.85059293 16.00666979
   1.36991332  9.60484253 15.97913953
   4.11790475  1.37506392 15.97869218
   4.12073126  4.12832379 16.01753001
   4.12071127  6.85332033 16.01760768
   4.11795642  9.60696632 15.97852042
   6.86541715  1.37547002 15.97954720
   6.85543992  4.13155714 16.00442160
   6.85589086  6.85105172 16.00373363
   6.86550469  9.60679485 15.97936339
   9.60981865  1.37457717 15.98268996
   9.61410230  4.11612676 15.98175913
   9.61404717  6.86626274 15.98150320
   9.60982276  9.60789207 15.98248017
   0.00071336  0.00012365 17.93507865
  10.97626095  2.74007736 17.94206896
  10.95977153  5.49137707 17.95507860
  10.97619868  8.24233410 17.94189518
   2.74545284 10.98193220 17.93128156
   2.74444652  2.72712419 17.93658921
   2.66656653  5.49030614 18.04270248
   2.74414633  8.25497074 17.93566794
   5.48901610 10.98190723 17.93260314
   5.49630223  2.72492650 17.93331168
   5.57182884  5.49025443 18.02693634
   5.49656401  8.25689533 17.93274448
   8.23519839  0.00016958 17.93481020
   8.24223073  2.74317131 17.93961181
   8.27061850  5.49142029 17.94530452
   8.24230538  8.23927140 17.93945528
   3.40912507  5.50059793 19.89927614
   4.70179773  5.50087397 19.98321214
   2.72630731  5.50636278 20.91257311
 


--------------------------------------------------------------------------------------------------------


 k-point  1 :   0.1250 0.1250 0.0000  plane waves:   65671
 k-point  2 :   0.3750 0.1250 0.0000  plane waves:   65719
 k-point  3 :  -0.3750 0.1250 0.0000  plane waves:   65719
 k-point  4 :  -0.1250 0.1250 0.0000  plane waves:   65671
 k-point  5 :   0.1250 0.3750 0.0000  plane waves:   65719
 k-point  6 :   0.3750 0.3750 0.0000  plane waves:   65776
 k-point  7 :  -0.3750 0.3750 0.0000  plane waves:   65776
 k-point  8 :  -0.1250 0.3750 0.0000  plane waves:   65719

 maximum and minimum number of plane-waves per node :     65776    65671

 maximum number of plane-waves:     65776
 maximum index in each direction: 
   IXMAX=   18   IYMAX=   17   IZMAX=   48
   IXMIN=  -18   IYMIN=  -18   IZMIN=  -48


 serial   3D FFT for wavefunctions
 parallel 3D FFT for charge:
    minimum data exchange during FFTs selected (reduces bandwidth)


 total amount of memory used by VASP MPI-rank0   268020. kBytes
=======================================================================

   base      :      30000. kBytes
   nonlr-proj:      50938. kBytes
   fftplans  :       7679. kBytes
   grid      :      91427. kBytes
   one-center:       2083. kBytes
   wavefun   :      85893. kBytes
 
     INWAV:  cpu time    0.0001: real time    0.0003
 Broyden mixing: mesh for mixing (old mesh)
   NGX = 35   NGY = 35   NGZ = 97
  (NGX  =144   NGY  =144   NGZ  =392)
  gives a total of 118825 points

 initial charge density was supplied:
 charge density of overlapping atoms calculated
 number of electron     657.0000000 magnetization      67.0000000
 keeping initial charge density in first step


--------------------------------------------------------------------------------------------------------


 Maximum index for non-local projection operator         5585
 Maximum index for augmentation-charges          678 (set IRDMAX)


--------------------------------------------------------------------------------------------------------


 First call to EWALD:  gamma=   0.115
 Maximum number of real-space cells 4x 4x 2
 Maximum number of reciprocal cells 2x 2x 5

    FEWALD:  cpu time    0.0405: real time    0.0368


--------------------------------------- Iteration      1(   1)  ---------------------------------------


    POTLOK:  cpu time    0.4684: real time    0.4782
    SETDIJ:  cpu time    0.1271: real time    0.0890
     EDDAV:  cpu time   67.1351: real time   33.9007
       DOS:  cpu time    0.1420: real time    0.1330
    --------------------------------------------
      LOOP:  cpu time   67.8725: real time   34.6009

 eigenvalue-minimisations  : 15360
 total energy-change (2. order) : 0.3677505E+04  (-0.2449150E+05)
 number of electron     657.0000000 magnetization      67.0000000
 augmentation part      657.0000000 magnetization      67.0000000

 DIPCOR: dipole corrections for dipol
 direction  3 min pos     1,
 dipolmoment           0.000000      0.000000     -0.000080 electrons x Angstroem
 Tr[quadrupol]    -13915.591587

 energy correction for charged system         0.000000 eV
 dipol+quadrupol energy correction           -0.000000 eV
 added-field ion interaction          0.000404 eV  (added to PSCEN)


 Free energy of the ion-electron system (eV)
  ---------------------------------------------------
  alpha Z        PSCENC =       769.75630635
  Ewald energy   TEWEN  =    382869.43502780
  -Hartree energ DENC   =   -436209.44760156
  -exchange      EXHF   =         0.00000000
  -V(xc)+E(xc)   XCENC  =     -1803.61313997
  PAW double counting   =     52523.07572169   -48546.04695150
  entropy T*S    EENTRO =         0.00160908
  eigenvalues    EBANDS =      1121.73351578
  atomic energy  EATOM  =     52952.61051956
  Solvation  Ediel_sol  =         0.00000000
  ---------------------------------------------------
  free energy    TOTEN  =      3677.50500724 eV

  energy without entropy =     3677.50339816  energy(sigma->0) =     3677.50447088


--------------------------------------------------------------------------------------------------------




--------------------------------------- Iteration      1(   2)  ---------------------------------------


     EDDAV:  cpu time   77.5602: real time   38.8804
       DOS:  cpu time    0.0041: real time    0.0021
    --------------------------------------------
      LOOP:  cpu time   77.5643: real time   38.8825

 eigenvalue-minimisations  : 17952
 total energy-change (2. order) :-0.3843029E+04  (-0.3621664E+04)
 number of electron     657.0000000 magnetization      67.0000000
 augmentation part      657.0000000 magnetization      67.0000000

 DIPCOR: dipole corrections for dipol
 direction  3 min pos     1,
 dipolmoment           0.000000      0.000000     -0.000080 electrons x Angstroem
 Tr[quadrupol]    -13915.591587

 energy correction for charged system         0.000000 eV
 dipol+quadrupol energy correction           -0.000000 eV
 added-field ion interaction          0.000404 eV  (added to PSCEN)


 Free energy of the ion-electron system (eV)
  ---------------------------------------------------
  alpha Z        PSCENC =       769.75630635
  Ewald energy   TEWEN  =    382869.43502780
  -Hartree energ DENC   =   -436209.44760156
  -exchange      EXHF   =         0.00000000
  -V(xc)+E(xc)   XCENC  =     -1803.61313997
  PAW double counting   =     52523.07572169   -48546.04695150
  entropy T*S    EENTRO =         0.03290951
  eigenvalues    EBANDS =     -2721.32704715
  atomic energy  EATOM  =     52952.61051956
  Solvation  Ediel_sol  =         0.00000000
  ---------------------------------------------------
  free energy    TOTEN  =      -165.52425526 eV

  energy without entropy =     -165.55716477  energy(sigma->0) =     -165.53522510


--------------------------------------------------------------------------------------------------------




--------------------------------------- Iteration      1(   3)  ---------------------------------------


     EDDAV:  cpu time   87.3768: real time   43.7968
       DOS:  cpu time    0.0041: real time    0.0021
    --------------------------------------------
      LOOP:  cpu time   87.3809: real time   43.7988

 eigenvalue-minimisations  : 19872
 total energy-change (2. order) :-0.1754163E+03  (-0.1704984E+03)
 number of electron     657.0000000 magnetization      67.0000000
 augmentation part      657.0000000 magnetization      67.0000000

 DIPCOR: dipole corrections for dipol
 direction  3 min pos     1,
 dipolmoment           0.000000      0.000000     -0.000080 electrons x Angstroem
 Tr[quadrupol]    -13915.591587

 energy correction for charged system         0.000000 eV
 dipol+quadrupol energy correction           -0.000000 eV
 added-field ion interaction          0.000404 eV  (added to PSCEN)


 Free energy of the ion-electron system (eV)
  ---------------------------------------------------
  alpha Z        PSCENC =       769.75630635
  Ewald energy   TEWEN  =    382869.43502780
  -Hartree energ DENC   =   -436209.44760156
  -exchange      EXHF   =         0.00000000
  -V(xc)+E(xc)   XCENC  =     -1803.61313997
  PAW double counting   =     52523.07572169   -48546.04695150
  entropy T*S    EENTRO =         0.20208312
  eigenvalues    EBANDS =     -2896.91255417
  atomic energy  EATOM  =     52952.61051956
  Solvation  Ediel_sol  =         0.00000000
  ---------------------------------------------------
  free energy    TOTEN  =      -340.94058867 eV

  energy without entropy =     -341.14267179  energy(sigma->0) =     -341.00794971


--------------------------------------------------------------------------------------------------------




--------------------------------------- Iteration      1(   4)  ---------------------------------------


     EDDAV:  cpu time   75.9338: real time   38.0646
       DOS:  cpu time    0.0039: real time    0.0019
    --------------------------------------------
      LOOP:  cpu time   75.9377: real time   38.0665

 eigenvalue-minimisations  : 17472
 total energy-change (2. order) :-0.2607247E+01  (-0.2604115E+01)
 number of electron     657.0000000 magnetization      67.0000000
 augmentation part      657.0000000 magnetization      67.0000000

 DIPCOR: dipole corrections for dipol
 direction  3 min pos     1,
 dipolmoment           0.000000      0.000000     -0.000080 electrons x Angstroem
 Tr[quadrupol]    -13915.591587

 energy correction for charged system         0.000000 eV
 dipol+quadrupol energy correction           -0.000000 eV
 added-field ion interaction          0.000404 eV  (added to PSCEN)


 Free energy of the ion-electron system (eV)
  ---------------------------------------------------
  alpha Z        PSCENC =       769.75630635
  Ewald energy   TEWEN  =    382869.43502780
  -Hartree energ DENC   =   -436209.44760156
  -exchange      EXHF   =         0.00000000
  -V(xc)+E(xc)   XCENC  =     -1803.61313997
  PAW double counting   =     52523.07572169   -48546.04695150
  entropy T*S    EENTRO =         0.20321259
  eigenvalues    EBANDS =     -2899.52093058
  atomic energy  EATOM  =     52952.61051956
  Solvation  Ediel_sol  =         0.00000000
  ---------------------------------------------------
  free energy    TOTEN  =      -343.54783561 eV

  energy without entropy =     -343.75104820  energy(sigma->0) =     -343.61557314


--------------------------------------------------------------------------------------------------------




--------------------------------------- Iteration      1(   5)  ---------------------------------------


     EDDAV:  cpu time   99.8085: real time   50.0449
       DOS:  cpu time    0.0041: real time    0.0021
    CHARGE:  cpu time    2.1508: real time    1.8359
    MIXING:  cpu time    0.0316: real time    0.0191
    --------------------------------------------
      LOOP:  cpu time  101.9951: real time   51.9020

 eigenvalue-minimisations  : 22080
 total energy-change (2. order) :-0.1222945E+00  (-0.1222794E+00)
 number of electron     656.9999483 magnetization      64.6556457
 augmentation part      260.8601466 magnetization      50.7138222

 DIPCOR: dipole corrections for dipol
 direction  3 min pos     1,
 dipolmoment           0.000000      0.000000     -0.000080 electrons x Angstroem
 Tr[quadrupol]    -13915.591587

 energy correction for charged system         0.000000 eV
 dipol+quadrupol energy correction           -0.000000 eV
 added-field ion interaction          0.000404 eV  (added to PSCEN)


 Broyden mixing:
  rms(total) = 0.58388E+01    rms(broyden)= 0.58380E+01
  rms(prec ) = 0.58928E+01
  weight for this iteration     100.00

 Free energy of the ion-electron system (eV)
  ---------------------------------------------------
  alpha Z        PSCENC =       769.75630635
  Ewald energy   TEWEN  =    382869.43502780
  -Hartree energ DENC   =   -436209.44760156
  -exchange      EXHF   =         0.00000000
  -V(xc)+E(xc)   XCENC  =     -1803.61313997
  PAW double counting   =     52523.07572169   -48546.04695150
  entropy T*S    EENTRO =         0.20323421
  eigenvalues    EBANDS =     -2899.64324666
  atomic energy  EATOM  =     52952.61051956
  Solvation  Ediel_sol  =         0.00000000
  ---------------------------------------------------
  free energy    TOTEN  =      -343.67013006 eV

  energy without entropy =     -343.87336428  energy(sigma->0) =     -343.73787480


--------------------------------------------------------------------------------------------------------




--------------------------------------- Iteration      1(   6)  ---------------------------------------


    POTLOK:  cpu time    0.3658: real time    0.2493
    SETDIJ:  cpu time    0.0256: real time    0.0174
    EDDIAG:  cpu time   11.9272: real time    6.0008
  RMM-DIIS:  cpu time   30.0664: real time   15.4469
    ORTHCH:  cpu time    2.8796: real time    1.4484
       DOS:  cpu time    0.0039: real time    0.0020
    CHARGE:  cpu time    2.3853: real time    2.0929
    MIXING:  cpu time    0.0122: real time    0.0061
    --------------------------------------------
      LOOP:  cpu time   47.6660: real time   25.2638

 eigenvalue-minimisations  : 15418
 total energy-change (2. order) : 0.2884264E+02  (-0.6160966E+01)
 number of electron     656.9999462 magnetization      61.6653940
 augmentation part      271.3140687 magnetization      46.3096566

 DIPCOR: dipole corrections for dipol
 direction  3 min pos     1,
 dipolmoment           0.000000      0.000000      0.184882 electrons x Angstroem
 Tr[quadrupol]    -13919.881506

 energy correction for charged system         0.000000 eV
 dipol+quadrupol energy correction           -0.000855 eV
 added-field ion interaction         -0.936884 eV  (added to PSCEN)


 Broyden mixing:
  rms(total) = 0.31926E+01    rms(broyden)= 0.31923E+01
  rms(prec ) = 0.32330E+01
  weight for this iteration     100.00

 eigenvalues of (default mixing * dielectric matrix)
  average eigenvalue GAMMA=   1.0563
  1.0563

 Free energy of the ion-electron system (eV)
  ---------------------------------------------------
  alpha Z        PSCENC =       768.81816378
  Ewald energy   TEWEN  =    382869.43502780
  -Hartree energ DENC   =   -435987.35712687
  -exchange      EXHF   =         0.00000000
  -V(xc)+E(xc)   XCENC  =     -1806.13360312
  PAW double counting   =     56374.43280853   -52474.18111924
  entropy T*S    EENTRO =         0.10743225
  eigenvalues    EBANDS =     -3012.55959587
  atomic energy  EATOM  =     52952.61051956
  Solvation  Ediel_sol  =         0.00000000
  ---------------------------------------------------
  free energy    TOTEN  =      -314.82749318 eV

  energy without entropy =     -314.93492543  energy(sigma->0) =     -314.86330393


--------------------------------------------------------------------------------------------------------




--------------------------------------- Iteration      1(   7)  ---------------------------------------


    POTLOK:  cpu time    0.4368: real time    0.2585
    SETDIJ:  cpu time    0.0186: real time    0.0122
    EDDIAG:  cpu time   11.9850: real time    6.0075
  RMM-DIIS:  cpu time   29.5303: real time   14.9639
    ORTHCH:  cpu time    2.7572: real time    1.3846
       DOS:  cpu time    0.0041: real time    0.0020
    CHARGE:  cpu time    2.3812: real time    2.0773
    MIXING:  cpu time    0.0070: real time    0.0035
    --------------------------------------------
      LOOP:  cpu time   47.1202: real time   24.7095

 eigenvalue-minimisations  : 15386
 total energy-change (2. order) : 0.5088130E+00  (-0.2140439E+01)
 number of electron     656.9999456 magnetization      59.9611890
 augmentation part      269.9095029 magnetization      45.1368912

 DIPCOR: dipole corrections for dipol
 direction  3 min pos     1,
 dipolmoment           0.000000      0.000000     -0.143314 electrons x Angstroem
 Tr[quadrupol]    -13930.051775

 energy correction for charged system         0.000000 eV
 dipol+quadrupol energy correction           -0.000514 eV
 added-field ion interaction          0.726240 eV  (added to PSCEN)


 Broyden mixing:
  rms(total) = 0.35541E+01    rms(broyden)= 0.35537E+01
  rms(prec ) = 0.39213E+01
  weight for this iteration     100.00

 eigenvalues of (default mixing * dielectric matrix)
  average eigenvalue GAMMA=   0.9381
  1.4162  0.4600

 Free energy of the ion-electron system (eV)
  ---------------------------------------------------
  alpha Z        PSCENC =       770.48162858
  Ewald energy   TEWEN  =    382869.43502780
  -Hartree energ DENC   =   -436366.32975023
  -exchange      EXHF   =         0.00000000
  -V(xc)+E(xc)   XCENC  =     -1801.12389950
  PAW double counting   =     59435.40781685   -55568.71962275
  entropy T*S    EENTRO =        -0.05771727
  eigenvalues    EBANDS =     -2606.02268325
  atomic energy  EATOM  =     52952.61051956
  Solvation  Ediel_sol  =         0.00000000
  ---------------------------------------------------
  free energy    TOTEN  =      -314.31868023 eV

  energy without entropy =     -314.26096296  energy(sigma->0) =     -314.29944114


--------------------------------------------------------------------------------------------------------




--------------------------------------- Iteration      1(   8)  ---------------------------------------


    POTLOK:  cpu time    0.3935: real time    0.2523
    SETDIJ:  cpu time    0.0189: real time    0.0123
    EDDIAG:  cpu time   11.8400: real time    5.9349
  RMM-DIIS:  cpu time   29.8788: real time   15.2483
    ORTHCH:  cpu time    2.7620: real time    1.3893
       DOS:  cpu time    0.0039: real time    0.0019
    CHARGE:  cpu time    2.1878: real time    1.8856
    MIXING:  cpu time    0.0064: real time    0.0032
    --------------------------------------------
      LOOP:  cpu time   47.0912: real time   24.7277

 eigenvalue-minimisations  : 15376
 total energy-change (2. order) : 0.6121252E+01  (-0.2777623E+01)
 number of electron     656.9999478 magnetization      57.9793150
 augmentation part      270.9860464 magnetization      42.5153361

 DIPCOR: dipole corrections for dipol
 direction  3 min pos     1,
 dipolmoment           0.000000      0.000000     -0.329115 electrons x Angstroem
 Tr[quadrupol]    -13928.551764

 energy correction for charged system         0.000000 eV
 dipol+quadrupol energy correction           -0.002709 eV
 added-field ion interaction          1.667778 eV  (added to PSCEN)


 Broyden mixing:
  rms(total) = 0.31957E+01    rms(broyden)= 0.31951E+01
  rms(prec ) = 0.36189E+01
  weight for this iteration     100.00

 eigenvalues of (default mixing * dielectric matrix)
  average eigenvalue GAMMA=   0.9352
  1.9107  0.6828  0.2122

 Free energy of the ion-electron system (eV)
  ---------------------------------------------------
  alpha Z        PSCENC =       771.42097168
  Ewald energy   TEWEN  =    382869.43502780
  -Hartree energ DENC   =   -436288.25856740
  -exchange      EXHF   =         0.00000000
  -V(xc)+E(xc)   XCENC  =     -1795.85973658
  PAW double counting   =     60534.76927249   -56681.80224712
  entropy T*S    EENTRO =        -0.06018547
  eigenvalues    EBANDS =     -2670.45248317
  atomic energy  EATOM  =     52952.61051956
  Solvation  Ediel_sol  =         0.00000000
  ---------------------------------------------------
  free energy    TOTEN  =      -308.19742821 eV

  energy without entropy =     -308.13724274  energy(sigma->0) =     -308.17736638


--------------------------------------------------------------------------------------------------------




--------------------------------------- Iteration      1(   9)  ---------------------------------------


    POTLOK:  cpu time    0.3950: real time    0.2265
    SETDIJ:  cpu time    0.0190: real time    0.0123
    EDDIAG:  cpu time   11.8976: real time    5.9638
  RMM-DIIS:  cpu time   29.5017: real time   14.9851
    ORTHCH:  cpu time    2.7514: real time    1.3836
       DOS:  cpu time    0.0039: real time    0.0020
    CHARGE:  cpu time    2.2662: real time    1.9707
    MIXING:  cpu time    0.0072: real time    0.0036
    --------------------------------------------
      LOOP:  cpu time   46.8419: real time   24.5476

 eigenvalue-minimisations  : 15380
 total energy-change (2. order) :-0.1458349E+02  (-0.1102546E+01)
 number of electron     656.9999417 magnetization      56.7131168
 augmentation part      270.3115491 magnetization      43.3509375

 DIPCOR: dipole corrections for dipol
 direction  3 min pos     1,
 dipolmoment           0.000000      0.000000      1.203850 electrons x Angstroem
 Tr[quadrupol]    -13929.831384

 energy correction for charged system         0.000000 eV
 dipol+quadrupol energy correction           -0.036240 eV
 added-field ion interaction         -6.100472 eV  (added to PSCEN)


 Broyden mixing:
  rms(total) = 0.52100E+01    rms(broyden)= 0.52097E+01
  rms(prec ) = 0.65648E+01
  weight for this iteration     100.00

 eigenvalues of (default mixing * dielectric matrix)
  average eigenvalue GAMMA=   0.8064
  2.1563  0.7416  0.1837  0.1438

 Free energy of the ion-electron system (eV)
  ---------------------------------------------------
  alpha Z        PSCENC =       763.61919001
  Ewald energy   TEWEN  =    382869.43502780
  -Hartree energ DENC   =   -436351.87024654
  -exchange      EXHF   =         0.00000000
  -V(xc)+E(xc)   XCENC  =     -1791.77933949
  PAW double counting   =     61514.72341949   -57673.84925098
  entropy T*S    EENTRO =        -0.00023964
  eigenvalues    EBANDS =     -2605.66999963
  atomic energy  EATOM  =     52952.61051956
  Solvation  Ediel_sol  =         0.00000000
  ---------------------------------------------------
  free energy    TOTEN  =      -322.78091941 eV

  energy without entropy =     -322.78067978  energy(sigma->0) =     -322.78083953


--------------------------------------------------------------------------------------------------------




--------------------------------------- Iteration      1(  10)  ---------------------------------------


    POTLOK:  cpu time    0.4349: real time    0.2551
    SETDIJ:  cpu time    0.0195: real time    0.0126
    EDDIAG:  cpu time   11.8372: real time    5.9335
  RMM-DIIS:  cpu time   29.6961: real time   15.1715
    ORTHCH:  cpu time    2.7674: real time    1.3918
       DOS:  cpu time    0.0041: real time    0.0021
    CHARGE:  cpu time    2.2035: real time    1.8997
    MIXING:  cpu time    0.0074: real time    0.0037
    --------------------------------------------
      LOOP:  cpu time   46.9702: real time   24.6700

 eigenvalue-minimisations  : 15388
 total energy-change (2. order) : 0.2778625E+02  (-0.7280423E+00)
 number of electron     656.9999472 magnetization      55.8763845
 augmentation part      271.7183644 magnetization      40.7937322

 DIPCOR: dipole corrections for dipol
 direction  3 min pos     1,
 dipolmoment           0.000000      0.000000     -0.201792 electrons x Angstroem
 Tr[quadrupol]    -13931.479566

 energy correction for charged system         0.000000 eV
 dipol+quadrupol energy correction           -0.001018 eV
 added-field ion interaction          1.022572 eV  (added to PSCEN)


 Broyden mixing:
  rms(total) = 0.30728E+01    rms(broyden)= 0.30725E+01
  rms(prec ) = 0.36553E+01
  weight for this iteration     100.00

 eigenvalues of (default mixing * dielectric matrix)
  average eigenvalue GAMMA=   0.7077
  2.2568  0.7672  0.2146  0.2146  0.0855

 Free energy of the ion-electron system (eV)
  ---------------------------------------------------
  alpha Z        PSCENC =       770.77745628
  Ewald energy   TEWEN  =    382869.43502780
  -Hartree energ DENC   =   -436405.21753821
  -exchange      EXHF   =         0.00000000
  -V(xc)+E(xc)   XCENC  =     -1788.78336251
  PAW double counting   =     62049.35951938   -58215.79728562
  entropy T*S    EENTRO =        -0.11329226
  eigenvalues    EBANDS =     -2527.26571631
  atomic energy  EATOM  =     52952.61051956
  Solvation  Ediel_sol  =         0.00000000
  ---------------------------------------------------
  free energy    TOTEN  =      -294.99467188 eV

  energy without entropy =     -294.88137962  energy(sigma->0) =     -294.95690780


--------------------------------------------------------------------------------------------------------




--------------------------------------- Iteration      1(  11)  ---------------------------------------


    POTLOK:  cpu time    0.3879: real time    0.2502
    SETDIJ:  cpu time    0.0192: real time    0.0124
    EDDIAG:  cpu time   11.8327: real time    5.9313
  RMM-DIIS:  cpu time   29.8968: real time   15.3433
    ORTHCH:  cpu time    2.7609: real time    1.3892
       DOS:  cpu time    0.0040: real time    0.0020
    CHARGE:  cpu time    1.9827: real time    1.6872
    MIXING:  cpu time    0.0072: real time    0.0036
    --------------------------------------------
      LOOP:  cpu time   46.8913: real time   24.6193

 eigenvalue-minimisations  : 15402
 total energy-change (2. order) : 0.5719538E+01  (-0.2836417E+00)
 number of electron     656.9999466 magnetization      54.8314364
 augmentation part      271.8787376 magnetization      38.4339913

 DIPCOR: dipole corrections for dipol
 direction  3 min pos     1,
 dipolmoment           0.000000      0.000000      0.194493 electrons x Angstroem
 Tr[quadrupol]    -13932.395118

 energy correction for charged system         0.000000 eV
 dipol+quadrupol energy correction           -0.000946 eV
 added-field ion interaction         -0.985587 eV  (added to PSCEN)


 Broyden mixing:
  rms(total) = 0.16099E+01    rms(broyden)= 0.16097E+01
  rms(prec ) = 0.17509E+01
  weight for this iteration     100.00

 eigenvalues of (default mixing * dielectric matrix)
  average eigenvalue GAMMA=   0.6484
  2.2346  0.7569  0.3580  0.2984  0.1563  0.0860

 Free energy of the ion-electron system (eV)
  ---------------------------------------------------
  alpha Z        PSCENC =       768.76936946
  Ewald energy   TEWEN  =    382869.43502780
  -Hartree energ DENC   =   -436443.74686104
  -exchange      EXHF   =         0.00000000
  -V(xc)+E(xc)   XCENC  =     -1789.28522389
  PAW double counting   =     62273.30799840   -58442.49343231
  entropy T*S    EENTRO =        -0.05553988
  eigenvalues    EBANDS =     -2477.81699185
  atomic energy  EATOM  =     52952.61051956
  Solvation  Ediel_sol  =         0.00000000
  ---------------------------------------------------
  free energy    TOTEN  =      -289.27513375 eV

  energy without entropy =     -289.21959387  energy(sigma->0) =     -289.25662046


--------------------------------------------------------------------------------------------------------




--------------------------------------- Iteration      1(  12)  ---------------------------------------


    POTLOK:  cpu time    0.3909: real time    0.2478
    SETDIJ:  cpu time    0.0189: real time    0.0123
    EDDIAG:  cpu time   11.7580: real time    5.8950
  RMM-DIIS:  cpu time   29.8858: real time   15.3184
    ORTHCH:  cpu time    2.7921: real time    1.4040
       DOS:  cpu time    0.0040: real time    0.0020
    CHARGE:  cpu time    2.0779: real time    1.7825
    MIXING:  cpu time    0.0076: real time    0.0038
    --------------------------------------------
      LOOP:  cpu time   46.9353: real time   24.6658

 eigenvalue-minimisations  : 15408
 total energy-change (2. order) :-0.7836177E+00  (-0.3306323E+00)
 number of electron     656.9999470 magnetization      53.4589250
 augmentation part      271.9708212 magnetization      37.5873282

 DIPCOR: dipole corrections for dipol
 direction  3 min pos     1,
 dipolmoment           0.000000      0.000000      0.032141 electrons x Angstroem
 Tr[quadrupol]    -13932.238679

 energy correction for charged system         0.000000 eV
 dipol+quadrupol energy correction           -0.000026 eV
 added-field ion interaction         -0.162871 eV  (added to PSCEN)


 Broyden mixing:
  rms(total) = 0.15957E+01    rms(broyden)= 0.15956E+01
  rms(prec ) = 0.18090E+01
  weight for this iteration     100.00

 eigenvalues of (default mixing * dielectric matrix)
  average eigenvalue GAMMA=   0.6227
  2.2703  0.8194  0.4093  0.3998  0.1886  0.1886  0.0832

 Free energy of the ion-electron system (eV)
  ---------------------------------------------------
  alpha Z        PSCENC =       769.59300549
  Ewald energy   TEWEN  =    382869.43502780
  -Hartree energ DENC   =   -436441.04441761
  -exchange      EXHF   =         0.00000000
  -V(xc)+E(xc)   XCENC  =     -1790.31085912
  PAW double counting   =     62302.56342782   -58470.76626323
  entropy T*S    EENTRO =        -0.02359449
  eigenvalues    EBANDS =     -2482.11559767
  atomic energy  EATOM  =     52952.61051956
  Solvation  Ediel_sol  =         0.00000000
  ---------------------------------------------------
  free energy    TOTEN  =      -290.05875145 eV

  energy without entropy =     -290.03515696  energy(sigma->0) =     -290.05088662


--------------------------------------------------------------------------------------------------------




--------------------------------------- Iteration      1(  13)  ---------------------------------------


    POTLOK:  cpu time    0.3958: real time    0.2570
    SETDIJ:  cpu time    0.0194: real time    0.0128
    EDDIAG:  cpu time   11.8682: real time    5.9492
  RMM-DIIS:  cpu time   29.9054: real time   15.3409
    ORTHCH:  cpu time    2.8835: real time    1.4498
       DOS:  cpu time    0.0042: real time    0.0021
    CHARGE:  cpu time    2.2721: real time    1.9669
    MIXING:  cpu time    0.0093: real time    0.0047
    --------------------------------------------
      LOOP:  cpu time   47.3579: real time   24.9834

 eigenvalue-minimisations  : 15410
 total energy-change (2. order) :-0.4930355E+00  (-0.1543900E+00)
 number of electron     656.9999465 magnetization      52.7487656
 augmentation part      271.3310792 magnetization      36.5872945

 DIPCOR: dipole corrections for dipol
 direction  3 min pos     1,
 dipolmoment           0.000000      0.000000      0.233887 electrons x Angstroem
 Tr[quadrupol]    -13934.246333

 energy correction for charged system         0.000000 eV
 dipol+quadrupol energy correction           -0.001368 eV
 added-field ion interaction         -1.185214 eV  (added to PSCEN)


 Broyden mixing:
  rms(total) = 0.10683E+01    rms(broyden)= 0.10682E+01
  rms(prec ) = 0.11368E+01
  weight for this iteration     100.00

 eigenvalues of (default mixing * dielectric matrix)
  average eigenvalue GAMMA=   0.5957
  2.2372  0.7940  0.5270  0.5270  0.2493  0.1739  0.1739  0.0831

 Free energy of the ion-electron system (eV)
  ---------------------------------------------------
  alpha Z        PSCENC =       768.56932051
  Ewald energy   TEWEN  =    382869.43502780
  -Hartree energ DENC   =   -436531.88140815
  -exchange      EXHF   =         0.00000000
  -V(xc)+E(xc)   XCENC  =     -1791.37743651
  PAW double counting   =     62444.07408701   -58612.65758197
  entropy T*S    EENTRO =        -0.00744399
  eigenvalues    EBANDS =     -2389.31687116
  atomic energy  EATOM  =     52952.61051956
  Solvation  Ediel_sol  =         0.00000000
  ---------------------------------------------------
  free energy    TOTEN  =      -290.55178690 eV

  energy without entropy =     -290.54434291  energy(sigma->0) =     -290.54930557


--------------------------------------------------------------------------------------------------------




--------------------------------------- Iteration      1(  14)  ---------------------------------------


    POTLOK:  cpu time    0.3929: real time    0.2586
    SETDIJ:  cpu time    0.0198: real time    0.0127
    EDDIAG:  cpu time   11.9225: real time    5.9763
  RMM-DIIS:  cpu time   29.9735: real time   15.3894
    ORTHCH:  cpu time    2.7879: real time    1.4017
       DOS:  cpu time    0.0041: real time    0.0021
    CHARGE:  cpu time    2.2841: real time    1.9790
    MIXING:  cpu time    0.0086: real time    0.0043
    --------------------------------------------
      LOOP:  cpu time   47.3934: real time   25.0241

 eigenvalue-minimisations  : 15408
 total energy-change (2. order) :-0.2032094E+01  (-0.7121519E-01)
 number of electron     656.9999464 magnetization      51.2643071
 augmentation part      271.2801764 magnetization      35.3548708

 DIPCOR: dipole corrections for dipol
 direction  3 min pos     1,
 dipolmoment           0.000000      0.000000      0.199098 electrons x Angstroem
 Tr[quadrupol]    -13934.523193

 energy correction for charged system         0.000000 eV
 dipol+quadrupol energy correction           -0.000991 eV
 added-field ion interaction         -1.008923 eV  (added to PSCEN)


 Broyden mixing:
  rms(total) = 0.88404E+00    rms(broyden)= 0.88399E+00
  rms(prec ) = 0.91458E+00
  weight for this iteration     100.00

 eigenvalues of (default mixing * dielectric matrix)
  average eigenvalue GAMMA=   0.6105
  2.1650  0.8149  0.8149  0.7418  0.2959  0.2083  0.1852  0.1852  0.0831

 Free energy of the ion-electron system (eV)
  ---------------------------------------------------
  alpha Z        PSCENC =       768.74598798
  Ewald energy   TEWEN  =    382869.43502780
  -Hartree energ DENC   =   -436543.38346908
  -exchange      EXHF   =         0.00000000
  -V(xc)+E(xc)   XCENC  =     -1792.90191341
  PAW double counting   =     62407.78054660   -58575.29840818
  entropy T*S    EENTRO =         0.01378701
  eigenvalues    EBANDS =     -2379.58595874
  atomic energy  EATOM  =     52952.61051956
  Solvation  Ediel_sol  =         0.00000000
  ---------------------------------------------------
  free energy    TOTEN  =      -292.58388047 eV

  energy without entropy =     -292.59766748  energy(sigma->0) =     -292.58847614


--------------------------------------------------------------------------------------------------------




--------------------------------------- Iteration      1(  15)  ---------------------------------------


    POTLOK:  cpu time    0.3946: real time    0.2548
    SETDIJ:  cpu time    0.0206: real time    0.0132
    EDDIAG:  cpu time   11.9248: real time    5.9773
  RMM-DIIS:  cpu time   29.8703: real time   15.3085
    ORTHCH:  cpu time    2.7762: real time    1.3956
       DOS:  cpu time    0.0040: real time    0.0020
    CHARGE:  cpu time    2.4313: real time    2.1344
    MIXING:  cpu time    0.0098: real time    0.0049
    --------------------------------------------
      LOOP:  cpu time   47.4315: real time   25.0906

 eigenvalue-minimisations  : 15416
 total energy-change (2. order) :-0.4207792E+01  (-0.1051530E+00)
 number of electron     656.9999465 magnetization      49.1885272
 augmentation part      271.1462041 magnetization      33.9144866

 DIPCOR: dipole corrections for dipol
 direction  3 min pos     1,
 dipolmoment           0.000000      0.000000      0.247851 electrons x Angstroem
 Tr[quadrupol]    -13935.254938

 energy correction for charged system         0.000000 eV
 dipol+quadrupol energy correction           -0.001536 eV
 added-field ion interaction         -1.255975 eV  (added to PSCEN)


 Broyden mixing:
  rms(total) = 0.95869E+00    rms(broyden)= 0.95865E+00
  rms(prec ) = 0.10338E+01
  weight for this iteration     100.00

 eigenvalues of (default mixing * dielectric matrix)
  average eigenvalue GAMMA=   0.6395
  2.1153  1.1226  1.1226  0.7418  0.3359  0.3136  0.0831  0.1796  0.1796  0.2006

 Free energy of the ion-electron system (eV)
  ---------------------------------------------------
  alpha Z        PSCENC =       768.49839182
  Ewald energy   TEWEN  =    382869.43502780
  -Hartree energ DENC   =   -436573.10726190
  -exchange      EXHF   =         0.00000000
  -V(xc)+E(xc)   XCENC  =     -1795.27462133
  PAW double counting   =     62319.29697765   -58484.73591878
  entropy T*S    EENTRO =         0.04059386
  eigenvalues    EBANDS =     -2353.55538146
  atomic energy  EATOM  =     52952.61051956
  Solvation  Ediel_sol  =         0.00000000
  ---------------------------------------------------
  free energy    TOTEN  =      -296.79167278 eV

  energy without entropy =     -296.83226663  energy(sigma->0) =     -296.80520406


--------------------------------------------------------------------------------------------------------




--------------------------------------- Iteration      1(  16)  ---------------------------------------


    POTLOK:  cpu time    0.4062: real time    0.2387
    SETDIJ:  cpu time    0.0194: real time    0.0125
    EDDIAG:  cpu time   11.7694: real time    5.8995
  RMM-DIIS:  cpu time   29.7896: real time   15.2537
    ORTHCH:  cpu time    2.7622: real time    1.3887
       DOS:  cpu time    0.0049: real time    0.0024
    CHARGE:  cpu time    2.4526: real time    2.1591
    MIXING:  cpu time    0.0094: real time    0.0047
    --------------------------------------------
      LOOP:  cpu time   47.2137: real time   24.9594

 eigenvalue-minimisations  : 15408
 total energy-change (2. order) :-0.4085081E+01  (-0.1343516E+00)
 number of electron     656.9999464 magnetization      45.7986466
[...]
   -.372E+01 0.576E+01 0.965E+03   0.375E+01 -.577E+01 -.965E+03   -.301E-01 0.205E-01 0.198E-01   0.298E-02 -.139E-02 -.160E-01
   -.632E+01 0.766E-01 0.968E+03   0.626E+01 -.642E-01 -.968E+03   0.433E-01 -.231E-04 -.137E+00   0.211E-01 -.124E-01 -.709E-02
   -.368E+01 -.576E+01 0.965E+03   0.371E+01 0.578E+01 -.965E+03   -.302E-01 -.200E-01 0.197E-01   0.276E-02 0.142E-02 -.283E-01
   -.170E+01 -.772E-01 0.956E+03   0.170E+01 0.662E-01 -.956E+03   0.229E-01 -.483E-03 -.969E-01   -.204E-01 0.115E-01 -.326E-01
   -.174E+01 0.330E+01 0.959E+03   0.179E+01 -.333E+01 -.959E+03   -.231E-01 0.152E-01 -.220E-01   -.222E-01 0.154E-01 -.105E-01
   -.396E+01 0.108E+00 0.960E+03   0.397E+01 -.968E-01 -.960E+03   0.114E-01 0.411E-04 -.629E-01   -.211E-01 -.115E-01 0.318E-03
   -.174E+01 -.332E+01 0.959E+03   0.178E+01 0.335E+01 -.959E+03   -.232E-01 -.158E-01 -.203E-01   -.203E-01 -.154E-01 -.228E-01
   0.113E+02 0.131E+02 -.801E+03   -.113E+02 -.131E+02 0.801E+03   0.330E-02 -.317E-01 0.631E-01   0.149E-01 0.116E-01 0.174E-01
   0.235E+02 0.214E+02 -.789E+03   -.233E+02 -.212E+02 0.789E+03   -.242E+00 -.267E+00 -.123E+00   -.940E-03 -.921E-02 0.380E-01
   0.234E+02 -.211E+02 -.788E+03   -.232E+02 0.208E+02 0.788E+03   -.235E+00 0.261E+00 -.114E+00   -.184E-02 -.125E-01 0.353E-01
   0.113E+02 -.134E+02 -.800E+03   -.113E+02 0.133E+02 0.800E+03   0.315E-02 0.320E-01 0.637E-01   0.143E-01 0.983E-02 0.146E-01
   -.260E+01 0.167E+02 -.791E+03   0.259E+01 -.166E+02 0.791E+03   0.126E-01 -.547E-01 -.822E-02   0.109E-02 0.148E-01 0.148E-02
   -.530E+01 0.167E+02 -.784E+03   0.529E+01 -.168E+02 0.784E+03   -.656E-03 0.956E-01 0.336E+00   0.201E-01 -.895E-02 0.258E-01
   -.533E+01 -.164E+02 -.784E+03   0.531E+01 0.166E+02 0.784E+03   -.894E-03 -.973E-01 0.338E+00   0.191E-01 -.147E-01 0.235E-01
   -.263E+01 -.169E+02 -.791E+03   0.262E+01 0.168E+02 0.791E+03   0.125E-01 0.546E-01 -.830E-02   -.461E-04 0.862E-02 -.951E-03
   -.111E+02 0.110E+02 -.805E+03   0.112E+02 -.110E+02 0.805E+03   -.962E-02 -.321E-01 0.590E-01   -.132E-01 0.296E-01 0.511E-02
   -.222E+02 0.183E+02 -.798E+03   0.220E+02 -.180E+02 0.798E+03   0.212E+00 -.267E+00 -.151E+00   -.146E-03 0.860E-02 0.202E-01
   -.220E+02 -.180E+02 -.797E+03   0.218E+02 0.178E+02 0.797E+03   0.205E+00 0.261E+00 -.142E+00   0.664E-03 -.326E-01 0.179E-01
   -.112E+02 -.112E+02 -.805E+03   0.112E+02 0.112E+02 0.805E+03   -.911E-02 0.328E-01 0.590E-01   -.126E-01 -.583E-02 0.270E-02
   0.262E+01 0.856E+01 -.815E+03   -.261E+01 -.857E+01 0.815E+03   -.842E-02 -.176E-01 0.572E-01   -.275E-02 0.267E-01 0.208E-01
   0.432E+01 0.109E+02 -.796E+03   -.429E+01 -.109E+02 0.796E+03   -.103E-01 -.159E-01 0.235E-01   -.192E-01 0.825E-02 0.326E-01
   0.434E+01 -.107E+02 -.796E+03   -.432E+01 0.108E+02 0.796E+03   -.101E-01 0.166E-01 0.229E-01   -.180E-01 -.303E-01 0.297E-01
   0.264E+01 -.872E+01 -.815E+03   -.263E+01 0.872E+01 0.815E+03   -.854E-02 0.163E-01 0.573E-01   -.161E-02 -.457E-02 0.180E-01
   0.153E+02 -.206E+00 -.257E+04   -.153E+02 0.193E+00 0.256E+04   0.187E-01 -.874E-04 0.329E+01   0.748E-02 0.135E-01 0.270E-01
   0.328E+02 0.400E+02 -.255E+04   -.329E+02 -.400E+02 0.254E+04   0.533E-01 0.504E-01 0.334E+01   -.860E-03 0.184E-01 0.196E-01
   0.710E+02 0.302E+00 -.252E+04   -.711E+02 -.290E+00 0.252E+04   0.120E+00 0.475E-03 0.331E+01   -.125E-01 -.133E-01 0.222E-01
   0.331E+02 -.401E+02 -.255E+04   -.332E+02 0.402E+02 0.254E+04   0.536E-01 -.501E-01 0.334E+01   -.401E-03 -.185E-01 0.293E-01
   0.106E+02 -.342E+00 -.255E+04   -.106E+02 0.328E+00 0.255E+04   -.293E-01 0.649E-03 0.326E+01   0.348E-03 0.138E-01 0.179E-01
   0.272E+02 0.953E+02 -.249E+04   -.273E+02 -.956E+02 0.249E+04   0.957E-01 0.240E+00 0.344E+01   0.399E-02 0.973E-02 0.160E-01
   0.106E+03 0.146E+01 -.230E+04   -.106E+03 -.144E+01 0.230E+04   -.179E+00 -.864E-02 -.681E+00   0.526E-02 -.134E-01 0.229E-01
   0.275E+02 -.957E+02 -.249E+04   -.276E+02 0.960E+02 0.249E+04   0.983E-01 -.250E+00 0.345E+01   0.277E-02 -.935E-02 0.263E-01
   -.172E+02 -.264E+00 -.256E+04   0.171E+02 0.250E+00 0.255E+04   0.239E-01 -.106E-03 0.326E+01   -.684E-02 0.145E-01 0.186E-01
   -.420E+02 0.791E+02 -.251E+04   0.421E+02 -.796E+02 0.250E+04   -.101E+00 0.370E+00 0.353E+01   0.704E-03 0.245E-01 0.104E-01
   -.132E+03 0.104E+01 -.237E+04   0.132E+03 -.102E+01 0.237E+04   -.481E+00 0.281E-02 0.189E+01   0.955E-02 -.142E-01 0.155E-01
   -.424E+02 -.795E+02 -.250E+04   0.425E+02 0.799E+02 0.250E+04   -.105E+00 -.379E+00 0.353E+01   0.411E-03 -.240E-01 0.215E-01
   -.866E+01 -.157E+00 -.257E+04   0.867E+01 0.143E+00 0.257E+04   -.117E-01 -.470E-03 0.329E+01   -.868E-03 0.142E-01 0.278E-01
   -.180E+02 0.318E+02 -.256E+04   0.180E+02 -.318E+02 0.255E+04   -.477E-01 0.308E-01 0.332E+01   -.386E-02 0.283E-01 0.134E-01
   -.377E+02 0.207E+00 -.254E+04   0.379E+02 -.193E+00 0.254E+04   -.155E+00 -.803E-04 0.327E+01   -.581E-02 -.140E-01 0.106E-01
   -.180E+02 -.319E+02 -.256E+04   0.181E+02 0.319E+02 0.255E+04   -.478E-01 -.300E-01 0.332E+01   -.283E-02 -.284E-01 0.240E-01
   0.592E+02 0.761E+00 -.140E+04   -.672E+02 -.887E+00 0.138E+04   0.795E+01 0.129E+00 0.225E+02   0.796E-02 -.323E-02 -.125E-02
   -.284E+03 -.210E+00 -.189E+04   0.327E+03 0.280E+00 0.191E+04   -.433E+02 -.678E-01 -.145E+02   0.477E-02 -.378E-02 -.857E-02
   0.220E+03 -.153E+01 -.200E+04   -.253E+03 0.180E+01 0.205E+04   0.333E+02 -.268E+00 -.469E+02   0.395E-02 -.211E-02 -.406E-02
 -----------------------------------------------------------------------------------------------
   0.272E+01 0.246E+00 0.431E+02   0.341E-12 -.367E-12 -.955E-11   -.273E+01 -.239E+00 -.431E+02   0.138E-01 -.851E-02 0.280E-01
 
 
 POSITION                                       TOTAL-FORCE (eV/Angst)
 -----------------------------------------------------------------------------------
      1.37275      1.37275     12.08797         0.007183     -0.000124     -0.001956
      1.37275      4.11824     12.08797         0.005185      0.017355      0.007344
      1.37275      6.86373     12.08797         0.005047     -0.017161      0.007205
      1.37275      9.60922     12.08797         0.007347      0.001087     -0.002064
      4.11824      1.37275     12.08797        -0.006027     -0.000584      0.010064
      4.11824      4.11824     12.08797         0.004750     -0.001372     -0.011496
      4.11824      6.86373     12.08797         0.004775      0.001288     -0.011914
      4.11824      9.60922     12.08797        -0.005924      0.000865      0.010180
      6.86373      1.37275     12.08797         0.000406      0.001908     -0.005423
      6.86373      4.11824     12.08797        -0.002493      0.017887      0.014750
      6.86373      6.86373     12.08797        -0.002430     -0.017691      0.014490
      6.86373      9.60922     12.08797         0.000128     -0.001123     -0.005648
      9.60922      1.37275     12.08797        -0.016736     -0.035694     -0.048644
      9.60922      4.11824     12.08797         0.000088      0.025217      0.018408
      9.60922      6.86373     12.08797         0.000048     -0.025129      0.017600
      9.60922      9.60922     12.08797        -0.016609      0.036459     -0.048786
     10.98064      0.00023     14.03985         0.001255     -0.000021      0.000466
      0.00043      2.74756     14.03521        -0.001241     -0.001310     -0.000262
      0.01039      5.49101     14.04843        -0.001848     -0.000065     -0.001168
      0.00033      8.23474     14.03489        -0.001190      0.001247     -0.000207
      2.74462      0.00009     14.04055         0.000061     -0.000016     -0.002261
      2.74539      2.75393     14.04306        -0.000337     -0.000121      0.000844
      2.75409      5.49101     14.04838        -0.001690      0.000041      0.004868
      2.74545      8.22815     14.04295        -0.000188      0.000280      0.000940
      5.49133      0.00005     14.03785         0.000056      0.000045     -0.002129
      5.49020      2.75260     14.04108        -0.000006     -0.001488     -0.000411
      5.48504      5.49099     14.04889         0.001462      0.000026      0.002536
      5.49015      8.22941     14.04102        -0.000094      0.001724     -0.000449
      8.23684      0.00020     14.04069        -0.000380     -0.000041      0.000482
      8.23389      2.74898     14.04070         0.001762     -0.001509     -0.000989
      8.23302      5.49101     14.04815         0.001160     -0.000026     -0.002951
      8.23394      8.23331     14.04037         0.001693      0.001593     -0.001005
      1.37001      1.37759     15.97947         0.000608      0.000150     -0.000428
      1.38710      4.13218     16.00739        -0.000646      0.000340     -0.000734
      1.38650      6.85059     16.00665        -0.000920     -0.000139     -0.001046
      1.36992      9.60484     15.97914         0.000618     -0.000011     -0.000149
      4.11791      1.37508     15.97866         0.000175      0.000772     -0.002142
      4.12073      4.12834     16.01754         0.000037      0.001155      0.001216
      4.12071      6.85330     16.01762         0.000259     -0.001251      0.001334
      4.11796      9.60695     15.97849         0.000157     -0.000782     -0.002071
      6.86543      1.37546     15.97955         0.000618     -0.001115      0.000407
      6.85544      4.13155     16.00440        -0.000186     -0.000195     -0.001904
      6.85589      6.85106     16.00371        -0.000036      0.000501     -0.001854
      6.86551      9.60681     15.97937         0.000624      0.001157      0.000554
      9.60982      1.37457     15.98270        -0.000150     -0.000962      0.001319
      9.61410      4.11613     15.98174        -0.000157      0.000529     -0.001525
      9.61405      6.86626     15.98148        -0.000073     -0.000493     -0.001466
      9.60982      9.60790     15.98249        -0.000244      0.000883      0.001314
      0.00073      0.00013     17.93510         0.001101      0.000193      0.001433
     10.97627      2.74007     17.94208         0.000927     -0.000319      0.001021
     10.95976      5.49137     17.95510        -0.000598     -0.000205      0.001248
     10.97621      8.24234     17.94191         0.000892      0.000236      0.001307
      2.74546     10.98193     17.93132         0.000379      0.000138      0.003325
      2.74446      2.72714     17.93660         0.000998      0.001297      0.000383
      2.66661      5.49031     18.04279         0.003379     -0.000071      0.006068
      2.74416      8.25495     17.93568         0.000986     -0.001399      0.001063
      5.48903     10.98191     17.93265         0.001257      0.000003      0.004122
      5.49629      2.72495     17.93331        -0.000684      0.001844     -0.000390
      5.57180      5.49026     18.02697        -0.001848      0.000167      0.004055
      5.49655      8.25688     17.93275        -0.001088     -0.001610      0.000316
      8.23519      0.00017     17.93483        -0.000364     -0.000190      0.001613
      8.24223      2.74317     17.93961        -0.000027     -0.000424     -0.000320
      8.27064      5.49142     17.94531         0.001580     -0.000033     -0.000112
      8.24230      8.23928     17.93946        -0.000307      0.000298      0.000225
      3.40920      5.50059     19.89890        -0.009237     -0.000728      0.011704
      4.70183      5.50086     19.98342         0.000734     -0.001448      0.011616
      2.72626      5.50635     20.91297         0.016024     -0.001836     -0.003917
 -----------------------------------------------------------------------------------
    total drift:                                0.004248     -0.001602      0.007809


--------------------------------------------------------------------------------------------------------



  FREE ENERGIE OF THE ION-ELECTRON SYSTEM (eV)
  ---------------------------------------------------
  free  energy   TOTEN  =      -356.43216273 eV

  energy  without entropy=     -356.30141013  energy(sigma->0) =     -356.38857853
 
 d Force = 0.2175335E-03[ 0.615E-05, 0.429E-03]  d Energy = 0.2332426E-03-0.157E-04
 d Force =-0.4784287E+01[-0.479E+01,-0.478E+01]  d Ewald  =-0.4784286E+01-0.943E-06


--------------------------------------------------------------------------------------------------------


    POTLOK:  cpu time    0.2149: real time    0.2083


--------------------------------------------------------------------------------------------------------




--------------------------------------------------------------------------------------------------------


  
 reached required accuracy - stopping structural energy minimisation
     LOOP+:  cpu time  419.5997: real time  220.8203
    4ORBIT:  cpu time    0.0000: real time    0.0000
 


 total charge     
 
# of ion       s       p       d       tot
------------------------------------------
    1        0.445   0.308   8.522   9.274
    2        0.445   0.308   8.522   9.275
    3        0.445   0.308   8.522   9.275
    4        0.445   0.308   8.522   9.274
    5        0.445   0.307   8.522   9.274
    6        0.445   0.308   8.523   9.276
    7        0.445   0.308   8.523   9.276
    8        0.445   0.307   8.522   9.274
    9        0.444   0.308   8.522   9.274
   10        0.445   0.307   8.522   9.274
   11        0.445   0.307   8.522   9.274
   12        0.444   0.308   8.522   9.274
   13        0.444   0.308   8.524   9.276
   14        0.445   0.306   8.523   9.274
   15        0.445   0.306   8.523   9.274
   16        0.444   0.308   8.524   9.276
   17        0.488   0.482   8.458   9.428
   18        0.486   0.478   8.466   9.429
   19        0.486   0.479   8.456   9.421
   20        0.486   0.478   8.466   9.430
   21        0.487   0.480   8.459   9.426
   22        0.485   0.478   8.458   9.422
   23        0.487   0.481   8.459   9.427
   24        0.485   0.478   8.458   9.422
   25        0.487   0.480   8.460   9.427
   26        0.485   0.478   8.459   9.422
   27        0.487   0.480   8.458   9.425
   28        0.485   0.478   8.459   9.423
   29        0.488   0.482   8.458   9.428
   30        0.486   0.478   8.463   9.428
   31        0.485   0.479   8.456   9.420
   32        0.486   0.479   8.463   9.428
   33        0.487   0.480   8.459   9.426
   34        0.489   0.478   8.466   9.433
   35        0.489   0.478   8.466   9.433
   36        0.487   0.481   8.459   9.426
   37        0.488   0.481   8.460   9.429
   38        0.481   0.465   8.469   9.414
   39        0.481   0.464   8.469   9.414
   40        0.488   0.481   8.460   9.429
   41        0.487   0.482   8.458   9.427
   42        0.489   0.480   8.458   9.427
   43        0.489   0.480   8.458   9.428
   44        0.487   0.482   8.458   9.427
   45        0.489   0.482   8.457   9.428
   46        0.486   0.480   8.460   9.427
   47        0.486   0.480   8.461   9.427
   48        0.489   0.482   8.457   9.428
   49        0.445   0.308   8.522   9.275
   50        0.444   0.307   8.524   9.274
   51        0.450   0.318   8.518   9.286
   52        0.444   0.307   8.524   9.275
   53        0.448   0.311   8.521   9.281
   54        0.445   0.310   8.529   9.283
   55        0.496   0.460   8.468   9.425
   56        0.445   0.310   8.529   9.284
   57        0.448   0.311   8.521   9.280
   58        0.443   0.309   8.528   9.281
   59        0.436   0.380   8.471   9.286
   60        0.443   0.309   8.529   9.281
   61        0.444   0.308   8.523   9.275
   62        0.444   0.307   8.524   9.276
   63        0.453   0.318   8.519   9.290
   64        0.444   0.308   8.524   9.276
   65        1.265   2.457   0.000   3.722
   66        1.621   3.412   0.000   5.033
   67        1.631   3.452   0.000   5.084
--------------------------------------------------
tot         34.382  34.745 543.365 612.492
 


 magnetization (x)
 
# of ion       s       p       d       tot
------------------------------------------
    1       -0.000  -0.003   0.209   0.205
    2       -0.001  -0.003   0.205   0.201
    3       -0.001  -0.003   0.205   0.201
    4       -0.000  -0.003   0.209   0.205
    5       -0.001  -0.004   0.201   0.197
    6       -0.000  -0.003   0.208   0.205
    7       -0.000  -0.003   0.208   0.205
    8       -0.001  -0.004   0.201   0.197
    9       -0.001  -0.003   0.212   0.207
   10       -0.001  -0.003   0.203   0.200
   11       -0.001  -0.003   0.204   0.200
   12       -0.001  -0.003   0.212   0.208
   13        0.001  -0.003   0.219   0.216
   14       -0.001  -0.003   0.201   0.197
   15       -0.001  -0.003   0.201   0.197
   16        0.001  -0.003   0.219   0.217
   17       -0.002  -0.006   0.310   0.302
   18       -0.002  -0.006   0.299   0.291
   19       -0.002  -0.006   0.305   0.297
   20       -0.002  -0.006   0.299   0.292
   21       -0.002  -0.006   0.299   0.292
   22       -0.002  -0.006   0.306   0.298
   23       -0.002  -0.006   0.298   0.291
   24       -0.002  -0.006   0.306   0.298
   25       -0.002  -0.006   0.304   0.296
   26       -0.002  -0.006   0.302   0.294
   27       -0.002  -0.006   0.290   0.282
   28       -0.002  -0.006   0.302   0.294
   29       -0.002  -0.006   0.318   0.310
   30       -0.002  -0.006   0.297   0.290
   31       -0.002  -0.006   0.303   0.296
   32       -0.002  -0.006   0.298   0.290
   33       -0.002  -0.006   0.303   0.295
   34       -0.002  -0.006   0.260   0.253
   35       -0.002  -0.006   0.261   0.254
   36       -0.002  -0.006   0.303   0.295
   37       -0.002  -0.006   0.293   0.286
   38       -0.001  -0.005   0.290   0.284
   39       -0.001  -0.005   0.290   0.284
   40       -0.002  -0.006   0.293   0.286
   41       -0.002  -0.006   0.307   0.299
   42       -0.002  -0.006   0.270   0.262
   43       -0.002  -0.006   0.271   0.263
   44       -0.002  -0.006   0.307   0.299
   45       -0.002  -0.006   0.311   0.303
   46       -0.002  -0.006   0.298   0.290
   47       -0.002  -0.006   0.298   0.290
   48       -0.002  -0.006   0.311   0.303
   49       -0.001  -0.003   0.196   0.191
   50       -0.001  -0.003   0.200   0.196
   51       -0.000  -0.003   0.174   0.171
   52       -0.001  -0.003   0.200   0.196
   53       -0.000  -0.003   0.186   0.183
   54       -0.001  -0.003   0.193   0.190
   55       -0.002  -0.005   0.051   0.044
   56       -0.001  -0.003   0.194   0.190
   57       -0.000  -0.003   0.192   0.189
   58       -0.001  -0.003   0.209   0.205
   59       -0.002  -0.003   0.126   0.120
   60       -0.001  -0.003   0.209   0.206
   61       -0.001  -0.003   0.195   0.190
   62       -0.001  -0.003   0.200   0.196
   63       -0.001  -0.004   0.180   0.176
   64       -0.001  -0.003   0.200   0.196
   65       -0.001  -0.003   0.000  -0.004
   66        0.000   0.001   0.000   0.001
   67       -0.000  -0.002   0.000  -0.002
--------------------------------------------------
tot         -0.076  -0.299  15.724  15.349
 

 total amount of memory used by VASP MPI-rank0   268020. kBytes
=======================================================================

   base      :      30000. kBytes
   nonlr-proj:      50938. kBytes
   fftplans  :       7679. kBytes
   grid      :      91427. kBytes
   one-center:       2083. kBytes
   wavefun   :      85893. kBytes
 
  
  
 General timing and accounting informations for this job:
 ========================================================
  
                  Total CPU time used (sec):     3719.815
                            User time (sec):     3588.828
                          System time (sec):      130.988
                         Elapsed time (sec):     1985.160
  
                   Maximum memory used (kb):      775828.
                   Average memory used (kb):           0.
  
                          Minor page faults:      2751591
                          Major page faults:           17
                 Voluntary context switches:        17634
