 vasp.5.4.4.18Apr17-6-g9f103f2a35 (build May 01 2020 14:57:12) complex          
  
 executed on             LinuxIFC date 2022.01.27  16:01:58
 running on   40 total cores
 distrk:  each k-point on   40 cores,    1 groups
 distr:  one band on NCORES_PER_BAND=   1 cores,   40 groups


--------------------------------------------------------------------------------------------------------


 INCAR:
 POTCAR:    PAW_PBE N 08Apr2002                   
 POTCAR:    PAW_PBE O 08Apr2002                   
 POTCAR:    PAW_PBE Pd 04Jan2005                  

 ----------------------------------------------------------------------------- 
|                                                                             |
|           W    W    AA    RRRRR   N    N  II  N    N   GGGG   !!!           |
|           W    W   A  A   R    R  NN   N  II  NN   N  G    G  !!!           |
|           W    W  A    A  R    R  N N  N  II  N N  N  G       !!!           |
|           W WW W  AAAAAA  RRRRR   N  N N  II  N  N N  G  GGG   !            |
|           WW  WW  A    A  R   R   N   NN  II  N   NN  G    G                |
|           W    W  A    A  R    R  N    N  II  N    N   GGGG   !!!           |
|                                                                             |
|      For optimal performance we recommend to set                            |
|        NCORE= 4 - approx SQRT( number of cores)                             |
|      NCORE specifies how many cores store one orbital (NPAR=cpu/NCORE).     |
|      This setting can  greatly improve the performance of VASP for DFT.     |
|      The default,   NCORE=1            might be grossly inefficient         |
|      on modern multi-core architectures or massively parallel machines.     |
|      Do your own testing !!!!                                               |
|      Unfortunately you need to use the default for GW and RPA calculations. |
|      (for HF NCORE is supported but not extensively tested yet)             |
|                                                                             |
 ----------------------------------------------------------------------------- 

 POTCAR:    PAW_PBE N 08Apr2002                   
   VRHFIN =N: s2p3                                                              
   LEXCH  = PE                                                                  
   EATOM  =   264.5486 eV,   19.4438 Ry                                         
                                                                                
   TITEL  = PAW_PBE N 08Apr2002                                                 
   LULTRA =        F    use ultrasoft PP ?                                      
   IUNSCR =        1    unscreen: 0-lin 1-nonlin 2-no                           
   RPACOR =    1.200    partial core radius                                     
   POMASS =   14.001; ZVAL   =    5.000    mass and valenz                      
   RCORE  =    1.500    outmost cutoff radius                                   
   RWIGS  =    1.400; RWIGS  =    0.741    wigner-seitz radius (au A)           
   ENMAX  =  400.000; ENMIN  =  300.000 eV                                      
   ICORE  =        2    local potential                                         
   LCOR   =        T    correct aug charges                                     
   LPAW   =        T    paw PP                                                  
   EAUG   =  627.112                                                            
   DEXC   =    0.000                                                            
   RMAX   =    1.529    core radius for proj-oper                               
   RAUG   =    1.300    factor for augmentation sphere                          
   RDEP   =    1.514    radius for radial grids                                 
   RDEPT  =    1.338    core radius for aug-charge                              
                                                                                
   Atomic configuration                                                         
    4 entries                                                                   
     n  l   j            E        occ.                                          
     1  0  0.50      -384.7179   2.0000                                         
     2  0  0.50       -18.5828   2.0000                                         
     2  1  0.50        -7.0898   3.0000                                         
     3  2  1.50        -6.8029   0.0000                                         
   Description                                                                  
     l       E           TYP  RCUT    TYP  RCUT                                 
     0    -18.5828119     23  1.200                                             
     0    -13.5018863     23  1.200                                             
     1     -7.0897853     23  1.500                                             
     1      9.5240782     23  1.500                                             
     2     -6.8029130      7  1.500                                             
  local pseudopotential read in
  partial core-charges read in
  partial kinetic energy density read in
  atomic valenz-charges read in
  non local Contribution for L=           0  read in
    real space projection operators read in
  non local Contribution for L=           0  read in
    real space projection operators read in
  non local Contribution for L=           1  read in
    real space projection operators read in
  non local Contribution for L=           1  read in
    real space projection operators read in
    PAW grid and wavefunctions read in
 
   number of l-projection  operators is LMAX  =           4
   number of lm-projection operators is LMMAX =           8
 
 POTCAR:    PAW_PBE O 08Apr2002                   
   VRHFIN =O: s2p4                                                              
   LEXCH  = PE                                                                  
   EATOM  =   432.3788 eV,   31.7789 Ry                                         
                                                                                
   TITEL  = PAW_PBE O 08Apr2002                                                 
   LULTRA =        F    use ultrasoft PP ?                                      
   IUNSCR =        1    unscreen: 0-lin 1-nonlin 2-no                           
   RPACOR =    1.200    partial core radius                                     
   POMASS =   16.000; ZVAL   =    6.000    mass and valenz                      
   RCORE  =    1.520    outmost cutoff radius                                   
   RWIGS  =    1.550; RWIGS  =    0.820    wigner-seitz radius (au A)           
   ENMAX  =  400.000; ENMIN  =  300.000 eV                                      
   ICORE  =        2    local potential                                         
   LCOR   =        T    correct aug charges                                     
   LPAW   =        T    paw PP                                                  
   EAUG   =  605.392                                                            
   DEXC   =    0.000                                                            
   RMAX   =    1.553    core radius for proj-oper                               
   RAUG   =    1.300    factor for augmentation sphere                          
   RDEP   =    1.550    radius for radial grids                                 
   RDEPT  =    1.329    core radius for aug-charge                              
                                                                                
   Atomic configuration                                                         
    4 entries                                                                   
     n  l   j            E        occ.                                          
     1  0  0.50      -514.6923   2.0000                                         
     2  0  0.50       -23.9615   2.0000                                         
     2  1  0.50        -9.0305   4.0000                                         
     3  2  1.50        -9.5241   0.0000                                         
   Description                                                                  
     l       E           TYP  RCUT    TYP  RCUT                                 
     0    -23.9615318     23  1.200                                             
     0     -9.5240782     23  1.200                                             
     1     -9.0304911     23  1.520                                             
     1      8.1634956     23  1.520                                             
     2     -9.5240782      7  1.500                                             
  local pseudopotential read in
  partial core-charges read in
  partial kinetic energy density read in
  kinetic energy density of atom read in
  atomic valenz-charges read in
  non local Contribution for L=           0  read in
    real space projection operators read in
  non local Contribution for L=           0  read in
    real space projection operators read in
  non local Contribution for L=           1  read in
    real space projection operators read in
  non local Contribution for L=           1  read in
    real space projection operators read in
    PAW grid and wavefunctions read in
 
   number of l-projection  operators is LMAX  =           4
   number of lm-projection operators is LMMAX =           8
 
 POTCAR:    PAW_PBE Pd 04Jan2005                  
   VRHFIN =Pd : s1 d9                                                           
   LEXCH  = PE                                                                  
   EATOM  =   809.7530 eV,   59.5152 Ry                                         
                                                                                
   TITEL  = PAW_PBE Pd 04Jan2005                                                
   LULTRA =        F    use ultrasoft PP ?                                      
   IUNSCR =        1    unscreen: 0-lin 1-nonlin 2-no                           
   RPACOR =    2.000    partial core radius                                     
   POMASS =  106.420; ZVAL   =   10.000    mass and valenz                      
   RCORE  =    2.600    outmost cutoff radius                                   
   RWIGS  =    2.710; RWIGS  =    1.434    wigner-seitz radius (au A)           
   ENMAX  =  250.925; ENMIN  =  188.194 eV                                      
   ICORE  =        3    local potential                                         
   LCOR   =        T    correct aug charges                                     
   LPAW   =        T    paw PP                                                  
   EAUG   =  416.230                                                            
   DEXC   =    0.000                                                            
   RMAX   =    2.653    core radius for proj-oper                               
   RAUG   =    1.300    factor for augmentation sphere                          
   RDEP   =    2.734    radius for radial grids                                 
   RDEPT  =    2.103    core radius for aug-charge                              
                                                                                
   Atomic configuration                                                         
   12 entries                                                                   
     n  l   j            E        occ.                                          
     1  0  0.50    -24164.6631   2.0000                                         
     2  0  0.50     -3530.9218   2.0000                                         
     2  1  1.50     -3165.6822   6.0000                                         
     3  0  0.50      -639.4577   2.0000                                         
     3  1  1.50      -519.4532   6.0000                                         
     3  2  2.50      -328.9757  10.0000                                         
     4  0  0.50       -88.7014   2.0000                                         
     4  1  1.50       -54.4540   6.0000                                         
     4  2  2.50        -6.6878   9.0000                                         
     5  0  0.50        -4.3543   1.0000                                         
     5  1  0.50        -1.3606   0.0000                                         
     4  3  2.50        -1.3606   0.0000                                         
   Description                                                                  
     l       E           TYP  RCUT    TYP  RCUT                                 
     2     -6.6878251     23  2.400                                             
     2     -8.0484077     23  2.400                                             
     0     -4.3542939     23  2.400                                             
     0      4.3406793     23  2.400                                             
     1     -4.0817478     23  2.600                                             
     1     15.8380318     23  2.600                                             
     3     -4.0817478     23  2.400                                             
  local pseudopotential read in
  partial core-charges read in
  partial kinetic energy density read in
  atomic valenz-charges read in
  non local Contribution for L=           2  read in
    real space projection operators read in
  non local Contribution for L=           2  read in
    real space projection operators read in
  non local Contribution for L=           0  read in
    real space projection operators read in
  non local Contribution for L=           0  read in
    real space projection operators read in
  non local Contribution for L=           1  read in
    real space projection operators read in
  non local Contribution for L=           1  read in
    real space projection operators read in
    PAW grid and wavefunctions read in
 
   number of l-projection  operators is LMAX  =           6
   number of lm-projection operators is LMMAX =          18
 
 Optimization of the real space projectors (new method)

 maximal supplied QI-value         = 25.13
 optimisation between [QCUT,QGAM] = [ 10.05, 20.36] = [ 28.30,116.06] Ry 
 Optimized for a Real-space Cutoff    1.70 Angstroem

   l    n(q)    QCUT    max X(q) W(low)/X(q) W(high)/X(q)  e(spline) 
   0     10    10.053    79.467    0.61E-04    0.98E-04    0.61E-06
   0     10    10.053    66.151    0.60E-04    0.98E-04    0.61E-06
   1     10    10.053     8.350    0.17E-03    0.71E-03    0.45E-05
   1     10    10.053     5.531    0.18E-03    0.77E-03    0.49E-05
 Optimization of the real space projectors (new method)

 maximal supplied QI-value         = 24.76
 optimisation between [QCUT,QGAM] = [ 10.15, 20.30] = [ 28.85,115.39] Ry 
 Optimized for a Real-space Cutoff    1.51 Angstroem

   l    n(q)    QCUT    max X(q) W(low)/X(q) W(high)/X(q)  e(spline) 
   0      9    10.150    20.381    0.17E-03    0.18E-03    0.41E-06
   0      9    10.150    15.268    0.18E-03    0.20E-03    0.43E-06
   1      9    10.150     5.964    0.16E-03    0.20E-03    0.36E-06
   1      9    10.150     5.382    0.13E-03    0.16E-03    0.33E-06
 Optimization of the real space projectors (new method)

 maximal supplied QI-value         = 14.36
 optimisation between [QCUT,QGAM] = [ 10.20, 20.39] = [ 29.12,116.47] Ry 
 Optimized for a Real-space Cutoff    1.55 Angstroem

   l    n(q)    QCUT    max X(q) W(low)/X(q) W(high)/X(q)  e(spline) 
   2      9    10.197    59.108    0.12E-03    0.40E-04    0.11E-06
   2      9    10.197    58.101    0.12E-03    0.39E-04    0.12E-06
   0      9    10.197   102.235    0.41E-04    0.86E-05    0.83E-07
   0      9    10.197    58.388    0.37E-04    0.79E-05    0.78E-07
   1      9    10.197    22.191    0.25E-03    0.13E-03    0.84E-07
   1      9    10.197    15.590    0.21E-03    0.11E-03    0.74E-07
  PAW_PBE N 08Apr2002                   :
 energy of atom  1       EATOM= -264.5486
 kinetic energy error for atom=    0.0736 (will be added to EATOM!!)
  PAW_PBE O 08Apr2002                   :
 energy of atom  2       EATOM= -432.3788
 kinetic energy error for atom=    0.1156 (will be added to EATOM!!)
  PAW_PBE Pd 04Jan2005                  :
 energy of atom  3       EATOM= -809.7530
 kinetic energy error for atom=    0.0091 (will be added to EATOM!!)
 
 
 POSCAR: N O Pd                                  
  positions in direct lattice
  velocities in cartesian coordinates
 exchange correlation table for  LEXCH =        8
   RHO(1)=    0.500       N(1)  =     2000
   RHO(2)=  100.500       N(2)  =     4000
 


--------------------------------------------------------------------------------------------------------


 ion  position               nearest neighbor table
   1  0.365  0.302  0.645-   3 1.28  75 1.99  79 2.07
   2  0.375  0.009  0.651-  12 1.19  78 1.99  74 2.00
   3  0.351  0.414  0.654-   1 1.28  13 1.32  76 2.17
   4  0.743  0.382  0.649-  14 1.19  84 1.94  83 2.00
   5  0.655  0.096  0.644-  15 1.21  82 2.02  83 2.19  78 2.22
   6  0.636  0.723  0.650-  16 1.19  85 1.95  81 2.01
   7  0.005  0.373  0.650-  17 1.19  72 1.98  71 1.98
   8  0.100  0.098  0.643-  18 1.21  70 2.04  74 2.22  71 2.25
   9  0.093  0.650  0.644-  19 1.21  73 2.03  72 2.19  77 2.23
  10  0.884  0.879  0.641-  20 1.21  70 2.17  73 2.21  82 2.28  85 2.35
  11  0.361  0.752  0.652-  21 1.19  77 1.96  81 2.01
  12  0.374  0.038  0.689-   2 1.19
  13  0.446  0.482  0.664-   3 1.32  80 2.15
  14  0.726  0.390  0.688-   4 1.19
  15  0.660  0.090  0.684-   5 1.21
  16  0.645  0.729  0.690-   6 1.19
  17  0.028  0.372  0.689-   7 1.19
  18  0.096  0.095  0.684-   8 1.21
  19  0.088  0.655  0.684-   9 1.21
  20  0.885  0.881  0.682-  10 1.21
  21  0.357  0.732  0.691-  11 1.19
  22  0.125  0.125  0.403-  43 2.73  26 2.75  23 2.75  34 2.75  25 2.75  39 2.76  38 2.76  42 2.78

  23  0.125  0.375  0.403-  43 2.74  24 2.75  27 2.75  22 2.75  35 2.75  44 2.75  40 2.76  39 2.77

  24  0.125  0.625  0.403-  44 2.73  25 2.75  28 2.75  23 2.75  36 2.75  41 2.76  40 2.76  45 2.78

  25  0.125  0.875  0.403-  24 2.75  29 2.75  22 2.75  37 2.75  42 2.76  38 2.76  41 2.76  45 2.77

  26  0.375  0.125  0.403-  43 2.74  27 2.75  30 2.75  22 2.75  29 2.75  47 2.75  46 2.76  42 2.77

  27  0.375  0.375  0.403-  23 2.75  26 2.75  28 2.75  31 2.75  43 2.75  47 2.76  44 2.76  48 2.77

  28  0.375  0.625  0.403-  44 2.74  48 2.74  29 2.75  32 2.75  24 2.75  27 2.75  45 2.77  49 2.77

  29  0.375  0.875  0.403-  25 2.75  28 2.75  33 2.75  26 2.75  49 2.75  46 2.75  42 2.75  45 2.76

  30  0.625  0.125  0.403-  47 2.74  31 2.75  34 2.75  26 2.75  33 2.75  50 2.75  51 2.77  46 2.77

  31  0.625  0.375  0.403-  47 2.75  30 2.75  32 2.75  35 2.75  27 2.75  48 2.75  52 2.77  51 2.77

  32  0.625  0.625  0.403-  48 2.72  31 2.75  33 2.75  36 2.75  28 2.75  53 2.76  52 2.78  49 2.78

  33  0.625  0.875  0.403-  29 2.75  32 2.75  37 2.75  30 2.75  50 2.76  49 2.76  46 2.76  53 2.76

  34  0.875  0.125  0.403-  30 2.75  35 2.75  22 2.75  37 2.75  39 2.75  38 2.76  50 2.76  51 2.76

  35  0.875  0.375  0.403-  31 2.75  34 2.75  36 2.75  23 2.75  52 2.75  40 2.75  39 2.75  51 2.76

  36  0.875  0.625  0.403-  32 2.75  35 2.75  37 2.75  24 2.75  40 2.75  52 2.75  41 2.76  53 2.76

  37  0.875  0.875  0.403-  33 2.75  36 2.75  34 2.75  25 2.75  38 2.76  50 2.76  41 2.77  53 2.77

  38  1.000  1.000  0.468-  39 2.74  42 2.75  41 2.75  50 2.75  37 2.76  69 2.76  25 2.76  34 2.76
                            54 2.76  22 2.76  57 2.78  66 2.78
  39  0.999  0.250  0.468-  55 2.72  51 2.73  38 2.74  40 2.75  43 2.75  34 2.75  66 2.75  35 2.75
                            22 2.76  23 2.77  54 2.78  67 2.79
  40  0.999  0.500  0.468-  52 2.72  55 2.72  41 2.74  39 2.75  44 2.75  35 2.75  36 2.75  23 2.76
                            24 2.76  68 2.76  56 2.78  67 2.82
  41  0.000  0.749  0.468-  40 2.74  38 2.75  45 2.75  69 2.75  24 2.76  53 2.76  36 2.76  25 2.76
                            37 2.77  56 2.77  57 2.78  68 2.78
  42  0.250  0.998  0.469-  45 2.72  58 2.72  46 2.73  57 2.75  38 2.75  43 2.75  29 2.75  25 2.76
                            26 2.77  22 2.78  54 2.78  61 2.84
  43  0.249  0.249  0.468-  59 2.73  22 2.73  26 2.74  23 2.74  55 2.75  39 2.75  42 2.75  27 2.75
                            58 2.75  47 2.77  44 2.78  54 2.79
  44  0.250  0.502  0.468-  59 2.71  24 2.73  45 2.74  28 2.74  40 2.75  23 2.75  55 2.75  27 2.76
                            48 2.77  56 2.77  43 2.78  60 2.79
  45  0.251  0.751  0.469-  42 2.72  49 2.73  60 2.73  44 2.74  57 2.74  41 2.75  29 2.76  25 2.77
                            28 2.77  56 2.78  24 2.78  61 2.84
  46  0.499  0.999  0.468-  49 2.71  58 2.72  42 2.73  65 2.75  50 2.75  29 2.75  47 2.75  33 2.76
                            26 2.76  30 2.77  62 2.78  61 2.85
  47  0.501  0.249  0.468-  59 2.72  30 2.74  51 2.74  31 2.75  26 2.75  46 2.75  58 2.76  27 2.76
                            63 2.76  43 2.77  62 2.78  48 2.78
  48  0.502  0.502  0.468-  59 2.71  32 2.72  28 2.74  49 2.74  52 2.75  31 2.75  63 2.76  44 2.77
                            27 2.77  60 2.77  47 2.78  64 2.79
  49  0.499  0.752  0.469-  46 2.71  60 2.73  45 2.73  48 2.74  65 2.74  53 2.75  29 2.75  33 2.76
                            28 2.77  64 2.78  32 2.78  61 2.85
  50  0.749  0.000  0.468-  46 2.75  51 2.75  53 2.75  38 2.75  69 2.75  30 2.75  33 2.76  34 2.76
                            37 2.76  62 2.77  66 2.78  65 2.79
  51  0.751  0.250  0.469-  63 2.72  39 2.73  52 2.74  47 2.74  66 2.74  50 2.75  35 2.76  34 2.76
                            62 2.77  31 2.77  30 2.77  67 2.81
  52  0.752  0.499  0.468-  40 2.72  63 2.72  51 2.74  35 2.75  53 2.75  48 2.75  68 2.75  36 2.75
                            31 2.77  32 2.78  64 2.78  67 2.83
  53  0.749  0.750  0.468-  64 2.73  69 2.74  49 2.75  52 2.75  50 2.75  41 2.76  32 2.76  33 2.76
                            36 2.76  37 2.77  68 2.79  65 2.80
  54  0.124  0.124  0.534-  75 2.72  66 2.74  57 2.75  55 2.75  58 2.75  38 2.76  39 2.78  42 2.78
                            43 2.79  70 2.81  71 2.81  74 2.81
  55  0.123  0.375  0.532-  67 2.70  39 2.72  40 2.72  56 2.74  43 2.75  54 2.75  44 2.75  75 2.76
                            59 2.77  76 2.79  72 2.90  71 2.92
  56  0.125  0.624  0.534-  68 2.74  57 2.74  55 2.74  77 2.76  60 2.76  41 2.77  44 2.77  45 2.78
                            40 2.78  76 2.78  72 2.80  73 2.84
  57  0.127  0.874  0.534-  61 2.72  45 2.74  56 2.74  54 2.75  42 2.75  41 2.78  38 2.78  69 2.79
                            70 2.80  73 2.81  74 2.85  77 2.86
  58  0.375  0.123  0.532-  46 2.72  42 2.72  61 2.72  62 2.75  54 2.75  43 2.75  47 2.76  59 2.79
                            75 2.80  79 2.80  78 2.88  74 2.91
  59  0.375  0.377  0.530-  44 2.71  48 2.71  47 2.72  43 2.73  76 2.74  79 2.74  63 2.77  60 2.77
                            55 2.77  58 2.79  75 2.82  80 2.87
  60  0.376  0.629  0.533-  61 2.71  49 2.73  45 2.73  64 2.75  56 2.76  59 2.77  80 2.77  48 2.77
                            76 2.78  44 2.79  77 2.88  81 2.93
  61  0.374  0.876  0.538-  65 2.71  60 2.71  57 2.72  58 2.72  74 2.82  81 2.83  42 2.84  45 2.84
                            49 2.85  46 2.85  78 2.89  77 2.89
  62  0.625  0.125  0.534-  65 2.74  66 2.74  58 2.75  63 2.76  50 2.77  51 2.77  47 2.78  46 2.78
                            78 2.78  79 2.79  83 2.80  82 2.82
  63  0.627  0.376  0.533-  52 2.72  51 2.72  80 2.72  67 2.75  62 2.76  79 2.76  48 2.76  47 2.76
                            64 2.77  59 2.77  84 2.86  83 2.91
  64  0.627  0.628  0.534-  80 2.65  65 2.73  68 2.73  53 2.73  60 2.75  63 2.77  49 2.78  52 2.78
                            48 2.79  85 2.80  84 2.83  81 2.96
  65  0.621  0.876  0.534-  61 2.71  64 2.73  62 2.74  49 2.74  46 2.75  69 2.78  50 2.79  82 2.79
                            53 2.80  85 2.84  78 2.88  81 2.91
  66  0.874  0.127  0.534-  67 2.70  62 2.74  54 2.74  51 2.74  39 2.75  50 2.78  38 2.78  69 2.78
                            82 2.79  70 2.80  71 2.83  83 2.91
  67  0.878  0.373  0.537-  66 2.70  55 2.70  68 2.74  63 2.75  84 2.76  39 2.79  51 2.81  40 2.82
                            52 2.83  71 2.83  72 2.90  83 2.94
  68  0.875  0.622  0.534-  64 2.73  67 2.74  56 2.74  52 2.75  84 2.76  69 2.76  40 2.76  41 2.78
                            73 2.79  53 2.79  85 2.81  72 2.88
  69  0.874  0.874  0.533-  53 2.74  41 2.75  50 2.75  38 2.76  82 2.76  68 2.76  73 2.77  65 2.78
                            70 2.78  66 2.78  57 2.79  85 2.81
  70  0.997  0.996  0.601-   8 2.04  10 2.17  82 2.67  73 2.67  71 2.72  74 2.72  69 2.78  57 2.80
                            66 2.80  54 2.81
  71  0.003  0.243  0.604-   7 1.98   8 2.25  75 2.70  70 2.72  54 2.81  67 2.83  66 2.83  72 2.87
                            83 2.89  55 2.92
  72  0.010  0.505  0.605-   7 1.98   9 2.19  76 2.70  73 2.73  56 2.80  84 2.80  71 2.87  68 2.88
                            55 2.90  67 2.90
  73  0.994  0.753  0.601-   9 2.03  10 2.21  85 2.66  70 2.67  77 2.70  72 2.73  69 2.77  68 2.79
                            57 2.81  56 2.84
  74  0.244  0.004  0.604-   2 2.00   8 2.22  70 2.72  75 2.72  54 2.81  61 2.82  57 2.85  78 2.88
                            77 2.91  58 2.91
  75  0.247  0.251  0.598-   1 1.99  76 2.67  71 2.70  74 2.72  54 2.72  79 2.73  55 2.76  58 2.80
                            59 2.82
  76  0.255  0.494  0.598-   3 2.17  75 2.67  72 2.70  77 2.71  59 2.74  56 2.78  60 2.78  55 2.79
                            80 2.82
  77  0.239  0.739  0.605-  11 1.96   9 2.23  73 2.70  76 2.71  56 2.76  81 2.84  57 2.86  60 2.88
                            61 2.89  74 2.91
  78  0.506  0.012  0.605-   2 1.99   5 2.22  79 2.71  82 2.73  62 2.78  81 2.86  74 2.88  65 2.88
                            58 2.88  61 2.89
  79  0.496  0.258  0.598-   1 2.07  83 2.69  78 2.71  80 2.72  75 2.73  59 2.74  63 2.76  62 2.79
                            58 2.80
  80  0.511  0.506  0.597-  13 2.15  64 2.65  84 2.68  79 2.72  63 2.72  81 2.73  60 2.77  76 2.82
                            59 2.87
  81  0.498  0.752  0.608-   6 2.01  11 2.01  80 2.73  85 2.80  61 2.83  77 2.84  78 2.86  65 2.91
                            60 2.93  64 2.96
  82  0.754  0.996  0.601-   5 2.02  10 2.28  70 2.67  85 2.70  83 2.73  78 2.73  69 2.76  65 2.79
                            66 2.79  62 2.82
  83  0.739  0.243  0.606-   4 2.00   5 2.19  79 2.69  82 2.73  62 2.80  84 2.84  71 2.89  63 2.91
                            66 2.91  67 2.94
  84  0.755  0.501  0.602-   4 1.94  80 2.68  85 2.73  68 2.76  67 2.76  72 2.80  64 2.83  83 2.84
                            63 2.86
  85  0.752  0.750  0.602-   6 1.95  10 2.35  73 2.66  82 2.70  84 2.73  81 2.80  64 2.80  69 2.81
                            68 2.81  65 2.84
 
  LATTYP: Found a simple tetragonal cell.
 ALAT       =    10.9820000000
 C/A-ratio  =     2.7317428519
  
  Lattice vectors:
  
 A1 = (  10.9820000000,   0.0000000000,   0.0000000000)
 A2 = (   0.0000000000,  10.9820000000,   0.0000000000)
 A3 = (   0.0000000000,   0.0000000000,  30.0000000000)


Analysis of symmetry for initial positions (statically):
=====================================================================
 Subroutine PRICEL returns:
 Original cell was already a primitive cell.
 

 Routine SETGRP: Setting up the symmetry group for a 
 simple tetragonal supercell.


 Subroutine GETGRP returns: Found  1 space group operations
 (whereof  1 operations were pure point group operations)
 out of a pool of 16 trial point group operations.


The static configuration has the point symmetry C_1 .


Analysis of symmetry for dynamics (positions and initial velocities):
=====================================================================
 Subroutine PRICEL returns:
 Original cell was already a primitive cell.
 

 Routine SETGRP: Setting up the symmetry group for a 
 simple tetragonal supercell.


 Subroutine GETGRP returns: Found  1 space group operations
 (whereof  1 operations were pure point group operations)
 out of a pool of 16 trial point group operations.


The dynamic configuration has the point symmetry C_1 .


Analysis of constrained symmetry for selective dynamics:
=====================================================================
 Subroutine PRICEL returns:
 Original cell was already a primitive cell.
 

 Routine SETGRP: Setting up the symmetry group for a 
 simple tetragonal supercell.


 Subroutine GETGRP returns: Found  1 space group operations
 (whereof  1 operations were pure point group operations)
 out of a pool of 16 trial point group operations.


The constrained configuration has the point symmetry C_1 .


Analysis of structural, dynamic, and magnetic symmetry:
=====================================================================
 Subroutine PRICEL returns:
 Original cell was already a primitive cell.
 

 Routine SETGRP: Setting up the symmetry group for a 
 simple tetragonal supercell.


 Subroutine GETGRP returns: Found  1 space group operations
 (whereof  1 operations were pure point group operations)
 out of a pool of 16 trial point group operations.


The magnetic configuration has the point symmetry C_1 .


 Subroutine INISYM returns: Found  1 space group operations
 (whereof  1 operations are pure point group operations),
 and found     1 'primitive' translations

 
 
 KPOINTS: K-Point Grid                            

Automatic generation of k-mesh.
Space group operators:
 irot       det(A)        alpha          n_x          n_y          n_z        tau_x        tau_y        tau_z
    1     1.000000     0.000001     1.000000     0.000000     0.000000     0.000000     0.000000     0.000000
 
 Subroutine IBZKPT returns following result:
 ===========================================
 
 Found      8 irreducible k-points:
 
 Following reciprocal coordinates:
            Coordinates               Weight
  0.125000  0.125000  0.000000      2.000000
  0.375000  0.125000  0.000000      2.000000
 -0.375000  0.125000  0.000000      2.000000
 -0.125000  0.125000  0.000000      2.000000
  0.125000  0.375000  0.000000      2.000000
  0.375000  0.375000  0.000000      2.000000
 -0.375000  0.375000  0.000000      2.000000
 -0.125000  0.375000  0.000000      2.000000
 
 Following cartesian coordinates:
            Coordinates               Weight
  0.011382  0.011382  0.000000      2.000000
  0.034147  0.011382  0.000000      2.000000
 -0.034147  0.011382  0.000000      2.000000
 -0.011382  0.011382  0.000000      2.000000
  0.011382  0.034147  0.000000      2.000000
  0.034147  0.034147  0.000000      2.000000
 -0.034147  0.034147  0.000000      2.000000
 -0.011382  0.034147  0.000000      2.000000
 


--------------------------------------------------------------------------------------------------------




 Dimension of arrays:
   k-points           NKPTS =      8   k-points in BZ     NKDIM =      8   number of bands    NBANDS=    520
   number of dos      NEDOS =   1200   number of ions     NIONS =     85
   non local maximal  LDIM  =      6   non local SUM 2l+1 LMDIM =     18
   total plane-waves  NPLWV = ******
   max r-space proj   IRMAX =   5807   max aug-charges    IRDMAX=  13820
   dimension x,y,z NGX =    72 NGY =   72 NGZ =  196
   dimension x,y,z NGXF=   144 NGYF=  144 NGZF=  392
   support grid    NGXF=   144 NGYF=  144 NGZF=  392
   ions per type =              11  10  64
   NGX,Y,Z   is equivalent  to a cutoff of  10.90, 10.90, 10.86 a.u.
   NGXF,Y,Z  is equivalent  to a cutoff of  21.80, 21.80, 21.72 a.u.

 SYSTEM =  Pd_100_surface                          
 POSCAR =  N O Pd                                  

 Startparameter for this run:
   NWRITE =      2    write-flag & timer
   PREC   = accura    normal or accurate (medium, high low for compatibility)
   ISTART =      0    job   : 0-new  1-cont  2-samecut
   ICHARG =      2    charge: 1-file 2-atom 10-const
   ISPIN  =      2    spin polarized calculation?
   LNONCOLLINEAR =      F non collinear calculations
   LSORBIT =      F    spin-orbit coupling
   INIWAV =      1    electr: 0-lowe 1-rand  2-diag
   LASPH  =      F    aspherical Exc in radial PAW
   METAGGA=      F    non-selfconsistent MetaGGA calc.

 Electronic Relaxation 1
   ENCUT  =  400.0 eV  29.40 Ry    5.42 a.u.  17.91 17.91 48.92*2*pi/ulx,y,z
   ENINI  =  400.0     initial cutoff
   ENAUG  =  627.1 eV  augmentation charge cutoff
   NELM   =    100;   NELMIN=  2; NELMDL=  0     # of ELM steps 
   EDIFF  = 0.1E-04   stopping-criterion for ELM
   LREAL  =      T    real-space projection
   NLSPLINE    = F    spline interpolate recip. space projectors
   LCOMPAT=      F    compatible to vasp.4.4
   GGA_COMPAT  = T    GGA compatible to vasp.4.4-vasp.4.6
   LMAXPAW     = -100 max onsite density
   LMAXMIX     =    2 max onsite mixed and CHGCAR
   VOSKOWN=      0    Vosko Wilk Nusair interpolation
   ROPT   =   -0.00025  -0.00025  -0.00025
 Ionic relaxation
   EDIFFG = -.2E-01   stopping-criterion for IOM
   NSW    =    100    number of steps for IOM
   NBLOCK =      1;   KBLOCK =    100    inner block; outer block 
   IBRION =      2    ionic relax: 0-MD 1-quasi-New 2-CG
   NFREE  =      1    steps in history (QN), initial steepest desc. (CG)
   ISIF   =      2    stress and relaxation
   IWAVPR =     11    prediction:  0-non 1-charg 2-wave 3-comb
   ISYM   =      2    0-nonsym 1-usesym 2-fastsym
   LCORR  =      T    Harris-Foulkes like correction to forces

   POTIM  = 0.5000    time-step for ionic-motion
   TEIN   =    0.0    initial temperature
   TEBEG  =    0.0;   TEEND  =   0.0 temperature during run
   SMASS  =  -3.00    Nose mass-parameter (am)
   estimated Nose-frequenzy (Omega)   =  0.10E-29 period in steps =****** mass=  -0.276E-26a.u.
   SCALEE = 1.0000    scale energy and forces
   NPACO  =    256;   APACO  = 16.0  distance and # of slots for P.C.
   PSTRESS=    0.0 pullay stress

  Mass of Ions in am
   POMASS =  14.00 16.00106.42
  Ionic Valenz
   ZVAL   =   5.00  6.00 10.00
  Atomic Wigner-Seitz radii
   RWIGS  =  -1.00 -1.00 -1.00
  virtual crystal weights 
   VCA    =   1.00  1.00  1.00
   NELECT =     755.0000    total number of electrons
   NUPDOWN=      -1.0000    fix difference up-down

 DOS related values:
   EMIN   =  10.00;   EMAX   =-10.00  energy-range for DOS
   EFERMI =   0.00
   ISMEAR =     1;   SIGMA  =   0.20  broadening in eV -4-tet -1-fermi 0-gaus

 Electronic relaxation 2 (details)
   IALGO  =     68    algorithm
   LDIAG  =      T    sub-space diagonalisation (order eigenvalues)
   LSUBROT=      F    optimize rotation matrix (better conditioning)
   TURBO    =      0    0=normal 1=particle mesh
   IRESTART =      0    0=no restart 2=restart with 2 vectors
   NREBOOT  =      0    no. of reboots
   NMIN     =      0    reboot dimension
   EREF     =   0.00    reference energy to select bands
   IMIX   =      4    mixing-type and parameters
     AMIX     =   0.40;   BMIX     =  1.00
     AMIX_MAG =   1.60;   BMIX_MAG =  1.00
     AMIN     =   0.10
     WC   =   100.;   INIMIX=   1;  MIXPRE=   1;  MAXMIX= -45

 Intra band minimization:
   WEIMIN = 0.0010     energy-eigenvalue tresh-hold
   EBREAK =  0.48E-08  absolut break condition
   DEPER  =   0.30     relativ break condition  

   TIME   =   0.40     timestep for ELM

  volume/ion in A,a.u.               =      42.57       287.25
  Fermi-wavevector in a.u.,A,eV,Ry     =   0.971022  1.834966 12.828714  0.942884
  Thomas-Fermi vector in A             =   2.101205
 
 Write flags
   LWAVE        =      F    write WAVECAR
   LDOWNSAMPLE  =      F    k-point downsampling of WAVECAR
   LCHARG       =      F    write CHGCAR
   LVTOT        =      F    write LOCPOT, total local potential
   LVHAR        =      F    write LOCPOT, Hartree potential only
   LELF         =      F    write electronic localiz. function (ELF)
   LORBIT       =     11    0 simple, 1 ext, 2 COOP (PROOUT), +10 PAW based schemes


 Dipole corrections
   LMONO  =      F    monopole corrections only (constant potential shift)
   LDIPOL =      T    correct potential (dipole corrections)
   IDIPOL =      3    1-x, 2-y, 3-z, 4-all directions 
   EPSILON=  1.0000000 bulk dielectric constant

 Exchange correlation treatment:
   GGA     =    --    GGA type
   LEXCH   =     8    internal setting for exchange type
   VOSKOWN=      0    Vosko Wilk Nusair interpolation
   LHFCALC =     F    Hartree Fock is set to
   LHFONE  =     F    Hartree Fock one center treatment
   AEXX    =    0.0000 exact exchange contribution

 Linear response parameters
   LEPSILON=     F    determine dielectric tensor
   LRPA    =     F    only Hartree local field effects (RPA)
   LNABLA  =     F    use nabla operator in PAW spheres
   LVEL    =     F    velocity operator in full k-point grid
   LINTERFAST=   F  fast interpolation
   KINTER  =     0    interpolate to denser k-point grid
   CSHIFT  =0.1000    complex shift for real part using Kramers Kronig
   OMEGAMAX=  -1.0    maximum frequency
   DEG_THRESHOLD= 0.2000000E-02 threshold for treating states as degnerate
   RTIME   =   -0.100 relaxation time in fs
  (WPLASMAI=    0.000 imaginary part of plasma frequency in eV, 0.658/RTIME)
   DFIELD  = 0.0000000 0.0000000 0.0000000 field for delta impulse in time
 
 Orbital magnetization related:
   ORBITALMAG=     F  switch on orbital magnetization
   LCHIMAG   =     F  perturbation theory with respect to B field
   DQ        =  0.001000  dq finite difference perturbation B field
   LLRAUG    =     F  two centre corrections for induced B field



--------------------------------------------------------------------------------------------------------


 conjugate gradient relaxation of ions
   using selective dynamics as specified on POSCAR
 charge density and potential will be updated during run
 spin polarized calculation
 RMM-DIIS sequential band-by-band and
  variant of blocked Davidson during initial phase
 perform sub-space diagonalisation
    before iterative eigenvector-optimisation
 modified Broyden-mixing scheme, WC =      100.0
 initial mixing is a Kerker type mixing with AMIX =  0.4000 and BMIX =      1.0000
 Hartree-type preconditioning will be used
 using additional bands          142
 real space projection scheme for non local part
 use partial core corrections
 calculate Harris-corrections to forces 
   (improved forces if not selfconsistent)
 use gradient corrections 
 use of overlap-Matrix (Vanderbilt PP)
 Methfessel and Paxton  Order N= 1 SIGMA  =   0.20


--------------------------------------------------------------------------------------------------------


  energy-cutoff  :      400.00
  volume of cell :     3618.13
      direct lattice vectors                 reciprocal lattice vectors
    10.982000000  0.000000000  0.000000000     0.091058095  0.000000000  0.000000000
     0.000000000 10.982000000  0.000000000     0.000000000  0.091058095  0.000000000
     0.000000000  0.000000000 30.000000000     0.000000000  0.000000000  0.033333333

  length of vectors
    10.982000000 10.982000000 30.000000000     0.091058095  0.091058095  0.033333333


 
 k-points in units of 2pi/SCALE and weight: K-Point Grid                            
   0.01138226  0.01138226  0.00000000       0.125
   0.03414679  0.01138226  0.00000000       0.125
  -0.03414679  0.01138226  0.00000000       0.125
  -0.01138226  0.01138226  0.00000000       0.125
   0.01138226  0.03414679  0.00000000       0.125
   0.03414679  0.03414679  0.00000000       0.125
  -0.03414679  0.03414679  0.00000000       0.125
  -0.01138226  0.03414679  0.00000000       0.125
 
 k-points in reciprocal lattice and weights: K-Point Grid                            
   0.12500000  0.12500000  0.00000000       0.125
   0.37500000  0.12500000  0.00000000       0.125
  -0.37500000  0.12500000  0.00000000       0.125
  -0.12500000  0.12500000  0.00000000       0.125
   0.12500000  0.37500000  0.00000000       0.125
   0.37500000  0.37500000  0.00000000       0.125
  -0.37500000  0.37500000  0.00000000       0.125
  -0.12500000  0.37500000  0.00000000       0.125
 
 position of ions in fractional coordinates (direct lattice) 
   0.36529456  0.30217751  0.64474940
   0.37500264  0.00866005  0.65059062
   0.35067464  0.41443659  0.65442801
   0.74315186  0.38159902  0.64927174
   0.65532287  0.09603321  0.64431222
   0.63638410  0.72333329  0.65031475
   0.00488802  0.37325790  0.65013324
   0.09970508  0.09808179  0.64337225
   0.09260164  0.65041016  0.64420359
   0.88382143  0.87920278  0.64138196
   0.36090688  0.75183565  0.65225785
   0.37429495  0.03842823  0.68876710
   0.44629293  0.48204361  0.66429885
   0.72551283  0.39038776  0.68831083
   0.66022494  0.08991660  0.68444970
   0.64522770  0.72943899  0.68982172
   0.02801500  0.37201675  0.68894508
   0.09626527  0.09487379  0.68352906
   0.08834827  0.65476525  0.68435004
   0.88521925  0.88109195  0.68169187
   0.35694961  0.73183020  0.69116738
   0.12499955  0.12499955  0.40293227
   0.12499955  0.37499864  0.40293227
   0.12499955  0.62499774  0.40293227
   0.12499955  0.87499683  0.40293227
   0.37499864  0.12499955  0.40293227
   0.37499864  0.37499864  0.40293227
   0.37499864  0.62499774  0.40293227
   0.37499864  0.87499683  0.40293227
   0.62499774  0.12499955  0.40293227
   0.62499774  0.37499864  0.40293227
   0.62499774  0.62499774  0.40293227
   0.62499774  0.87499683  0.40293227
   0.87499683  0.12499955  0.40293227
   0.87499683  0.37499864  0.40293227
   0.87499683  0.62499774  0.40293227
   0.87499683  0.87499683  0.40293227
   0.99990276  0.99967196  0.46838425
   0.99889775  0.24959274  0.46822113
   0.99930652  0.49964019  0.46806554
   0.00026636  0.74929284  0.46838973
   0.25027573  0.99832944  0.46855718
   0.24914846  0.24893895  0.46753637
   0.24950631  0.50175946  0.46767927
   0.25076311  0.75108963  0.46868985
   0.49924126  0.99891089  0.46839283
   0.50103186  0.24947017  0.46777278
   0.50156311  0.50245975  0.46770714
   0.49920318  0.75228772  0.46856978
   0.74924336  0.00006553  0.46827758
   0.75071767  0.25012907  0.46862684
   0.75198903  0.49935502  0.46840704
   0.74929583  0.74967687  0.46845948
   0.12418060  0.12427726  0.53420459
   0.12313977  0.37454559  0.53182598
   0.12505593  0.62439476  0.53428261
   0.12727389  0.87428419  0.53409641
   0.37483443  0.12282902  0.53219539
   0.37542384  0.37688207  0.53046385
   0.37640344  0.62897494  0.53333194
   0.37428872  0.87552759  0.53836004
   0.62519021  0.12491048  0.53427916
   0.62728036  0.37586529  0.53251949
   0.62723230  0.62773396  0.53403414
   0.62071617  0.87586677  0.53448503
   0.87444665  0.12711206  0.53408234
   0.87759708  0.37285221  0.53651539
   0.87540024  0.62241553  0.53439770
   0.87366859  0.87375739  0.53318060
   0.99700961  0.99649039  0.60051866
   0.00251561  0.24345918  0.60415686
   0.00959805  0.50480776  0.60489831
   0.99445268  0.75312235  0.60097611
   0.24415310  0.00409043  0.60443204
   0.24740165  0.25109340  0.59787755
   0.25478168  0.49394664  0.59807799
   0.23942146  0.73943361  0.60454824
   0.50590681  0.01224855  0.60494903
   0.49558582  0.25812937  0.59781018
   0.51106783  0.50561161  0.59717637
   0.49799076  0.75184129  0.60765523
   0.75383507  0.99593775  0.60057500
   0.73906847  0.24340193  0.60572547
   0.75481434  0.50124977  0.60169108
   0.75202272  0.75014378  0.60190399
 
 position of ions in cartesian coordinates  (Angst):
   4.01166489  3.31851343 19.34248215
   4.11827894  0.09510465 19.51771857
   3.85110887  4.55134267 19.63284027
   8.16129376  4.19072040 19.47815218
   7.19675576  1.05463673 19.32936649
   6.98877016  7.94364620 19.50944258
   0.05368026  4.09911824 19.50399728
   1.09496116  1.07713417 19.30116760
   1.01695119  7.14280434 19.32610765
   9.70612695  9.65540497 19.24145883
   3.96347938  8.25665906 19.56773557
   4.11050714  0.42201877 20.66301305
   4.90118897  5.29380294 19.92896561
   7.96758185  4.28723835 20.64932500
   7.25059032  0.98746407 20.53349094
   7.08589061  8.01069902 20.69465162
   0.30766068  4.08548798 20.66835241
   1.05718523  1.04190400 20.50587176
   0.97024075  7.19063196 20.53050121
   9.72147780  9.67615174 20.45075608
   3.92002064  8.03695924 20.73502144
   1.37274503  1.37274503 12.08796804
   1.37274503  4.11823509 12.08796804
   1.37274503  6.86372514 12.08796804
   1.37274503  9.60921520 12.08796804
   4.11823509  1.37274503 12.08796804
   4.11823509  4.11823509 12.08796804
   4.11823509  6.86372514 12.08796804
   4.11823509  9.60921520 12.08796804
   6.86372514  1.37274503 12.08796804
   6.86372514  4.11823509 12.08796804
   6.86372514  6.86372514 12.08796804
   6.86372514  9.60921520 12.08796804
   9.60921520  1.37274503 12.08796804
   9.60921520  4.11823509 12.08796804
   9.60921520  6.86372514 12.08796804
   9.60921520  9.60921520 12.08796804
  10.98093207 10.97839742 14.05152738
  10.96989512  2.74102747 14.04663375
  10.97438421  5.48704857 14.04196620
   0.00292513  8.22873394 14.05169183
   2.74852807 10.96365386 14.05671550
   2.73614840  2.73384758 14.02609113
   2.74007832  5.51032237 14.03037805
   2.75388046  8.24846633 14.06069559
   5.48266757 10.97003941 14.05178494
   5.50233186  2.73968145 14.03318347
   5.50816603  5.51801303 14.03121408
   5.48224932  8.26162370 14.05709330
   8.22819057  0.00071963 14.04832726
   8.24438148  2.74691744 14.05880533
   8.25834356  5.48391681 14.05221121
   8.22876677  8.23295143 14.05378430
   1.36375131  1.36481287 16.02613762
   1.35232093  4.11325972 15.95477949
   1.37336423  6.85710328 16.02847839
   1.39772184  9.60138892 16.02289217
   4.11643173  1.34890826 15.96586156
   4.12290460  4.13891894 15.91391545
   4.13366254  6.90740278 15.99995811
   4.11043876  9.61504394 16.15080133
   6.86583885  1.37176695 16.02837486
   6.88879292  4.12775260 15.97558480
   6.88826510  6.89377437 16.02102407
   6.81670502  9.61876886 16.03455087
   9.60317315  1.39594468 16.02247025
   9.63777114  4.09466300 16.09546161
   9.61364545  6.83536737 16.03193098
   9.59462844  9.59560367 15.99541808
  10.94915952 10.94345747 18.01555966
   0.02762642  2.67366873 18.12470577
   0.10540578  5.54379883 18.14694936
  10.92107930  8.27078967 18.02928317
   2.68128931  0.04492113 18.13296110
   2.71696492  2.75750775 17.93632646
   2.79801240  5.42452205 17.94233956
   2.62932653  8.12045995 18.13644733
   5.55586859  0.13451352 18.14847082
   5.44252350  2.83477670 17.93430525
   5.61254691  5.55262666 17.91529114
   5.46893449  8.25672106 18.22965695
   8.27861671 10.93738838 18.01725002
   8.11644999  2.67303994 18.17176395
   8.28937108  5.50472498 18.05073248
   8.25871351  8.23807895 18.05711969
 


--------------------------------------------------------------------------------------------------------


 k-point  1 :   0.1250 0.1250 0.0000  plane waves:   65671
 k-point  2 :   0.3750 0.1250 0.0000  plane waves:   65719
 k-point  3 :  -0.3750 0.1250 0.0000  plane waves:   65719
 k-point  4 :  -0.1250 0.1250 0.0000  plane waves:   65671
 k-point  5 :   0.1250 0.3750 0.0000  plane waves:   65719
 k-point  6 :   0.3750 0.3750 0.0000  plane waves:   65776
 k-point  7 :  -0.3750 0.3750 0.0000  plane waves:   65776
 k-point  8 :  -0.1250 0.3750 0.0000  plane waves:   65719

 maximum and minimum number of plane-waves per node :     65776    65671

 maximum number of plane-waves:     65776
 maximum index in each direction: 
   IXMAX=   18   IYMAX=   17   IZMAX=   48
   IXMIN=  -18   IYMIN=  -18   IZMIN=  -48


 serial   3D FFT for wavefunctions
 parallel 3D FFT for charge:
    minimum data exchange during FFTs selected (reduces bandwidth)


 total amount of memory used by VASP MPI-rank0   427876. kBytes
=======================================================================

   base      :      30000. kBytes
   nonlr-proj:      58931. kBytes
   fftplans  :      11524. kBytes
   grid      :     101403. kBytes
   one-center:       2643. kBytes
   wavefun   :     223375. kBytes
 
     INWAV:  cpu time    0.0000: real time    0.0000
 Broyden mixing: mesh for mixing (old mesh)
   NGX = 35   NGY = 35   NGZ = 97
  (NGX  =144   NGY  =144   NGZ  =392)
  gives a total of 118825 points

 initial charge density was supplied:
 charge density of overlapping atoms calculated
 number of electron     755.0000000 magnetization      85.0000000
 keeping initial charge density in first step


--------------------------------------------------------------------------------------------------------


 Maximum index for non-local projection operator         5611
 Maximum index for augmentation-charges          679 (set IRDMAX)


--------------------------------------------------------------------------------------------------------


 First call to EWALD:  gamma=   0.115
 Maximum number of real-space cells 4x 4x 2
 Maximum number of reciprocal cells 2x 2x 5

    FEWALD:  cpu time    0.0774: real time    0.0728


--------------------------------------- Iteration      1(   1)  ---------------------------------------


    POTLOK:  cpu time    0.5830: real time    0.7527
    SETDIJ:  cpu time    0.2247: real time    0.2010
     EDDAV:  cpu time  185.3258: real time   93.3028
       DOS:  cpu time    0.1769: real time    0.1711
    --------------------------------------------
      LOOP:  cpu time  186.3106: real time   94.4276

 eigenvalue-minimisations  : 17040
 total energy-change (2. order) : 0.4650876E+04  (-0.2936972E+05)
 number of electron     755.0000000 magnetization      85.0000000
 augmentation part      755.0000000 magnetization      85.0000000

 DIPCOR: dipole corrections for dipol
 direction  3 min pos     1,
 dipolmoment           0.000000      0.000000     -0.000557 electrons x Angstroem
 Tr[quadrupol]    -15319.978373

 energy correction for charged system         0.000000 eV
 dipol+quadrupol energy correction           -0.000000 eV
 added-field ion interaction          0.017009 eV  (added to PSCEN)


 Free energy of the ion-electron system (eV)
  ---------------------------------------------------
  alpha Z        PSCENC =       968.21998706
  Ewald energy   TEWEN  =    445280.35075001
  -Hartree energ DENC   =   -504447.52080877
  -exchange      EXHF   =         0.00000000
  -V(xc)+E(xc)   XCENC  =     -1378.42112454
  PAW double counting   =     57342.28654816   -53391.45729325
  entropy T*S    EENTRO =        -0.00277587
  eigenvalues    EBANDS =      1221.95419598
  atomic energy  EATOM  =     59055.46611198
  Solvation  Ediel_sol  =         0.00000000
  ---------------------------------------------------
  free energy    TOTEN  =      4650.87559076 eV

  energy without entropy =     4650.87836664  energy(sigma->0) =     4650.87651605


--------------------------------------------------------------------------------------------------------




--------------------------------------- Iteration      1(   2)  ---------------------------------------


     EDDAV:  cpu time  200.1257: real time  100.3833
       DOS:  cpu time    0.0091: real time    0.0045
    --------------------------------------------
      LOOP:  cpu time  200.1348: real time  100.3879

 eigenvalue-minimisations  : 19120
 total energy-change (2. order) :-0.4771059E+04  (-0.4477184E+04)
 number of electron     755.0000000 magnetization      85.0000000
 augmentation part      755.0000000 magnetization      85.0000000

 DIPCOR: dipole corrections for dipol
 direction  3 min pos     1,
 dipolmoment           0.000000      0.000000     -0.000557 electrons x Angstroem
 Tr[quadrupol]    -15319.978373

 energy correction for charged system         0.000000 eV
 dipol+quadrupol energy correction           -0.000000 eV
 added-field ion interaction          0.017009 eV  (added to PSCEN)


 Free energy of the ion-electron system (eV)
  ---------------------------------------------------
  alpha Z        PSCENC =       968.21998706
  Ewald energy   TEWEN  =    445280.35075001
  -Hartree energ DENC   =   -504447.52080877
  -exchange      EXHF   =         0.00000000
  -V(xc)+E(xc)   XCENC  =     -1378.42112454
  PAW double counting   =     57342.28654816   -53391.45729325
  entropy T*S    EENTRO =         0.00351018
  eigenvalues    EBANDS =     -3549.11068475
  atomic energy  EATOM  =     59055.46611198
  Solvation  Ediel_sol  =         0.00000000
  ---------------------------------------------------
  free energy    TOTEN  =      -120.18300391 eV

  energy without entropy =     -120.18651409  energy(sigma->0) =     -120.18417397


--------------------------------------------------------------------------------------------------------




--------------------------------------- Iteration      1(   3)  ---------------------------------------


     EDDAV:  cpu time  204.7737: real time  102.6974
       DOS:  cpu time    0.0092: real time    0.0046
    --------------------------------------------
      LOOP:  cpu time  204.7829: real time  102.7020

 eigenvalue-minimisations  : 19680
 total energy-change (2. order) :-0.3441170E+03  (-0.3214952E+03)
 number of electron     755.0000000 magnetization      85.0000000
 augmentation part      755.0000000 magnetization      85.0000000

 DIPCOR: dipole corrections for dipol
 direction  3 min pos     1,
 dipolmoment           0.000000      0.000000     -0.000557 electrons x Angstroem
 Tr[quadrupol]    -15319.978373

 energy correction for charged system         0.000000 eV
 dipol+quadrupol energy correction           -0.000000 eV
 added-field ion interaction          0.017009 eV  (added to PSCEN)


 Free energy of the ion-electron system (eV)
  ---------------------------------------------------
  alpha Z        PSCENC =       968.21998706
  Ewald energy   TEWEN  =    445280.35075001
  -Hartree energ DENC   =   -504447.52080877
  -exchange      EXHF   =         0.00000000
  -V(xc)+E(xc)   XCENC  =     -1378.42112454
  PAW double counting   =     57342.28654816   -53391.45729325
  entropy T*S    EENTRO =        -0.06509668
  eigenvalues    EBANDS =     -3893.15903861
  atomic energy  EATOM  =     59055.46611198
  Solvation  Ediel_sol  =         0.00000000
  ---------------------------------------------------
  free energy    TOTEN  =      -464.29996463 eV

  energy without entropy =     -464.23486796  energy(sigma->0) =     -464.27826574


--------------------------------------------------------------------------------------------------------




--------------------------------------- Iteration      1(   4)  ---------------------------------------


     EDDAV:  cpu time  195.3299: real time   97.9548
       DOS:  cpu time    0.0093: real time    0.0047
    --------------------------------------------
      LOOP:  cpu time  195.3392: real time   97.9594

 eigenvalue-minimisations  : 18200
 total energy-change (2. order) :-0.9011166E+01  (-0.8885719E+01)
 number of electron     755.0000000 magnetization      85.0000000
 augmentation part      755.0000000 magnetization      85.0000000

 DIPCOR: dipole corrections for dipol
 direction  3 min pos     1,
 dipolmoment           0.000000      0.000000     -0.000557 electrons x Angstroem
 Tr[quadrupol]    -15319.978373

 energy correction for charged system         0.000000 eV
 dipol+quadrupol energy correction           -0.000000 eV
 added-field ion interaction          0.017009 eV  (added to PSCEN)


 Free energy of the ion-electron system (eV)
  ---------------------------------------------------
  alpha Z        PSCENC =       968.21998706
  Ewald energy   TEWEN  =    445280.35075001
  -Hartree energ DENC   =   -504447.52080877
  -exchange      EXHF   =         0.00000000
  -V(xc)+E(xc)   XCENC  =     -1378.42112454
  PAW double counting   =     57342.28654816   -53391.45729325
  entropy T*S    EENTRO =        -0.05713800
  eigenvalues    EBANDS =     -3902.17816325
  atomic energy  EATOM  =     59055.46611198
  Solvation  Ediel_sol  =         0.00000000
  ---------------------------------------------------
  free energy    TOTEN  =      -473.31113059 eV

  energy without entropy =     -473.25399259  energy(sigma->0) =     -473.29208459


--------------------------------------------------------------------------------------------------------




--------------------------------------- Iteration      1(   5)  ---------------------------------------


     EDDAV:  cpu time  221.5084: real time  111.0986
       DOS:  cpu time    0.0092: real time    0.0046
    CHARGE:  cpu time    6.4158: real time    6.0941
    MIXING:  cpu time    0.0713: real time    0.0603
    --------------------------------------------
      LOOP:  cpu time  228.0048: real time  117.2577

 eigenvalue-minimisations  : 21680
 total energy-change (2. order) :-0.2724001E+00  (-0.2722646E+00)
 number of electron     754.9999696 magnetization      81.3478345
 augmentation part      265.0987890 magnetization      66.4842631

 DIPCOR: dipole corrections for dipol
 direction  3 min pos     1,
 dipolmoment           0.000000      0.000000     -0.000557 electrons x Angstroem
 Tr[quadrupol]    -15319.978373

 energy correction for charged system         0.000000 eV
 dipol+quadrupol energy correction           -0.000000 eV
 added-field ion interaction          0.017009 eV  (added to PSCEN)


 Broyden mixing:
  rms(total) = 0.72421E+01    rms(broyden)= 0.72392E+01
  rms(prec ) = 0.73439E+01
  weight for this iteration     100.00

 Free energy of the ion-electron system (eV)
  ---------------------------------------------------
  alpha Z        PSCENC =       968.21998706
  Ewald energy   TEWEN  =    445280.35075001
  -Hartree energ DENC   =   -504447.52080877
  -exchange      EXHF   =         0.00000000
  -V(xc)+E(xc)   XCENC  =     -1378.42112454
  PAW double counting   =     57342.28654816   -53391.45729325
  entropy T*S    EENTRO =        -0.05688626
  eigenvalues    EBANDS =     -3902.45081509
  atomic energy  EATOM  =     59055.46611198
  Solvation  Ediel_sol  =         0.00000000
  ---------------------------------------------------
  free energy    TOTEN  =      -473.58353070 eV

  energy without entropy =     -473.52664443  energy(sigma->0) =     -473.56456861


--------------------------------------------------------------------------------------------------------




--------------------------------------- Iteration      1(   6)  ---------------------------------------


    POTLOK:  cpu time    0.4107: real time    0.4341
    SETDIJ:  cpu time    0.0551: real time    0.0331
    EDDIAG:  cpu time   33.8933: real time   17.0278
  RMM-DIIS:  cpu time  112.7102: real time   56.5575
    ORTHCH:  cpu time    6.0943: real time    3.0544
       DOS:  cpu time    0.0091: real time    0.0046
    CHARGE:  cpu time    6.0556: real time    5.7156
    MIXING:  cpu time    0.0384: real time    0.0281
    --------------------------------------------
      LOOP:  cpu time  159.2667: real time   82.8553

 eigenvalue-minimisations  : 16640
 total energy-change (2. order) : 0.4427939E+02  (-0.1735390E+02)
 number of electron     754.9999714 magnetization      79.0883722
 augmentation part      282.6207134 magnetization      65.0710870

 DIPCOR: dipole corrections for dipol
 direction  3 min pos     1,
 dipolmoment           0.000000      0.000000      0.749697 electrons x Angstroem
 Tr[quadrupol]    -15314.983364

 energy correction for charged system         0.000000 eV
 dipol+quadrupol energy correction           -0.014055 eV
 added-field ion interaction        -22.874505 eV  (added to PSCEN)


 Broyden mixing:
  rms(total) = 0.65151E+01    rms(broyden)= 0.65099E+01
  rms(prec ) = 0.68216E+01
  weight for this iteration     100.00

 eigenvalues of (default mixing * dielectric matrix)
  average eigenvalue GAMMA=   0.6422
  0.6422

 Free energy of the ion-electron system (eV)
  ---------------------------------------------------
  alpha Z        PSCENC =       945.31441788
  Ewald energy   TEWEN  =    445280.35075001
  -Hartree energ DENC   =   -503942.71475855
  -exchange      EXHF   =         0.00000000
  -V(xc)+E(xc)   XCENC  =     -1347.78598817
  PAW double counting   =     62607.11642253   -58743.63375333
  entropy T*S    EENTRO =         0.05321477
  eigenvalues    EBANDS =     -4283.47055410
  atomic energy  EATOM  =     59055.46611198
  Solvation  Ediel_sol  =         0.00000000
  ---------------------------------------------------
  free energy    TOTEN  =      -429.30413699 eV

  energy without entropy =     -429.35735176  energy(sigma->0) =     -429.32187525


--------------------------------------------------------------------------------------------------------




--------------------------------------- Iteration      1(   7)  ---------------------------------------


    POTLOK:  cpu time    0.5439: real time    0.4145
    SETDIJ:  cpu time    0.0553: real time    0.0332
    EDDIAG:  cpu time   33.9657: real time   17.0327
  RMM-DIIS:  cpu time  112.6641: real time   56.6484
    ORTHCH:  cpu time    6.1039: real time    3.0613
       DOS:  cpu time    0.0089: real time    0.0045
    CHARGE:  cpu time    6.0539: real time    5.7145
    MIXING:  cpu time    0.0212: real time    0.0106
    --------------------------------------------
      LOOP:  cpu time  159.4171: real time   82.9197

 eigenvalue-minimisations  : 16673
 total energy-change (2. order) : 0.1910065E+02  (-0.5296202E+01)
 number of electron     754.9999678 magnetization      75.0972567
 augmentation part      273.5965743 magnetization      57.0849728

 DIPCOR: dipole corrections for dipol
 direction  3 min pos     1,
 dipolmoment           0.000000      0.000000     -0.573911 electrons x Angstroem
 Tr[quadrupol]    -15335.341581

 energy correction for charged system         0.000000 eV
 dipol+quadrupol energy correction           -0.008236 eV
 added-field ion interaction         17.510980 eV  (added to PSCEN)


 Broyden mixing:
  rms(total) = 0.42248E+01    rms(broyden)= 0.42166E+01
  rms(prec ) = 0.45513E+01
  weight for this iteration     100.00

 eigenvalues of (default mixing * dielectric matrix)
  average eigenvalue GAMMA=   0.7873
  1.2031  0.3715

 Free energy of the ion-electron system (eV)
  ---------------------------------------------------
  alpha Z        PSCENC =       985.70572143
  Ewald energy   TEWEN  =    445280.35075001
  -Hartree energ DENC   =   -504616.07658129
  -exchange      EXHF   =         0.00000000
  -V(xc)+E(xc)   XCENC  =     -1354.09840861
  PAW double counting   =     64904.05969126   -61051.49963934
  entropy T*S    EENTRO =        -0.01109327
  eigenvalues    EBANDS =     -3614.10003595
  atomic energy  EATOM  =     59055.46611198
  Solvation  Ediel_sol  =         0.00000000
  ---------------------------------------------------
  free energy    TOTEN  =      -410.20348377 eV

  energy without entropy =     -410.19239050  energy(sigma->0) =     -410.19978602


--------------------------------------------------------------------------------------------------------




--------------------------------------- Iteration      1(   8)  ---------------------------------------


    POTLOK:  cpu time    0.5603: real time    0.4335
    SETDIJ:  cpu time    0.0550: real time    0.0331
    EDDIAG:  cpu time   33.7315: real time   16.9168
  RMM-DIIS:  cpu time  112.3790: real time   56.3463
    ORTHCH:  cpu time    6.0936: real time    3.0540
       DOS:  cpu time    0.0092: real time    0.0046
    CHARGE:  cpu time    6.3534: real time    6.0112
    MIXING:  cpu time    0.0215: real time    0.0108
    --------------------------------------------
      LOOP:  cpu time  159.2033: real time   82.8103

 eigenvalue-minimisations  : 16640
 total energy-change (2. order) :-0.1952829E+02  (-0.7626991E+01)
 number of electron     754.9999722 magnetization      72.0802767
 augmentation part      277.7206749 magnetization      56.5020477

 DIPCOR: dipole corrections for dipol
 direction  3 min pos     1,
 dipolmoment           0.000000      0.000000     -0.264604 electrons x Angstroem
 Tr[quadrupol]    -15325.092719

 energy correction for charged system         0.000000 eV
 dipol+quadrupol energy correction           -0.001751 eV
 added-field ion interaction          8.073493 eV  (added to PSCEN)


 Broyden mixing:
  rms(total) = 0.55796E+01    rms(broyden)= 0.55786E+01
  rms(prec ) = 0.62280E+01
  weight for this iteration     100.00

 eigenvalues of (default mixing * dielectric matrix)
  average eigenvalue GAMMA=   0.7687
  1.5784  0.4706  0.2570

 Free energy of the ion-electron system (eV)
  ---------------------------------------------------
  alpha Z        PSCENC =       976.27472027
  Ewald energy   TEWEN  =    445280.35075001
  -Hartree energ DENC   =   -504263.02543774
  -exchange      EXHF   =         0.00000000
  -V(xc)+E(xc)   XCENC  =     -1343.90078470
  PAW double counting   =     68140.33793167   -64322.16936742
  entropy T*S    EENTRO =        -0.04251230
  eigenvalues    EBANDS =     -3953.02318931
  atomic energy  EATOM  =     59055.46611198
  Solvation  Ediel_sol  =         0.00000000
  ---------------------------------------------------
  free energy    TOTEN  =      -429.73177753 eV

  energy without entropy =     -429.68926524  energy(sigma->0) =     -429.71760677


--------------------------------------------------------------------------------------------------------




--------------------------------------- Iteration      1(   9)  ---------------------------------------


    POTLOK:  cpu time    0.5632: real time    0.4242
    SETDIJ:  cpu time    0.0551: real time    0.0332
    EDDIAG:  cpu time   33.5746: real time   16.8359
  RMM-DIIS:  cpu time  111.9176: real time   56.1160
    ORTHCH:  cpu time    6.0757: real time    3.0506
       DOS:  cpu time    0.0091: real time    0.0046
    CHARGE:  cpu time    6.1578: real time    5.8191
    MIXING:  cpu time    0.0219: real time    0.0110
    --------------------------------------------
      LOOP:  cpu time  158.3750: real time   82.2945

 eigenvalue-minimisations  : 16642
 total energy-change (2. order) :-0.1068317E+02  (-0.3015609E+01)
 number of electron     754.9999651 magnetization      71.2598835
 augmentation part      280.4432688 magnetization      58.8477139

 DIPCOR: dipole corrections for dipol
 direction  3 min pos     1,
 dipolmoment           0.000000      0.000000      2.067169 electrons x Angstroem
 Tr[quadrupol]    -15330.256724

 energy correction for charged system         0.000000 eV
 dipol+quadrupol energy correction           -0.106856 eV
 added-field ion interaction        -63.072720 eV  (added to PSCEN)


 Broyden mixing:
  rms(total) = 0.52479E+01    rms(broyden)= 0.52464E+01
  rms(prec ) = 0.68453E+01
  weight for this iteration     100.00

 eigenvalues of (default mixing * dielectric matrix)
  average eigenvalue GAMMA=   0.6335
  1.6312  0.4612  0.2208  0.2208

 Free energy of the ion-electron system (eV)
  ---------------------------------------------------
  alpha Z        PSCENC =       905.02340210
  Ewald energy   TEWEN  =    445280.35075001
  -Hartree energ DENC   =   -504600.08603551
  -exchange      EXHF   =         0.00000000
  -V(xc)+E(xc)   XCENC  =     -1344.61331162
  PAW double counting   =     70109.81410258   -66311.70771446
  entropy T*S    EENTRO =         0.00403260
  eigenvalues    EBANDS =     -3534.66628682
  atomic energy  EATOM  =     59055.46611198
  Solvation  Ediel_sol  =         0.00000000
  ---------------------------------------------------
  free energy    TOTEN  =      -440.41494915 eV

  energy without entropy =     -440.41898175  energy(sigma->0) =     -440.41629335


--------------------------------------------------------------------------------------------------------




--------------------------------------- Iteration      1(  10)  ---------------------------------------


    POTLOK:  cpu time    0.5699: real time    0.4444
    SETDIJ:  cpu time    0.0551: real time    0.0331
    EDDIAG:  cpu time   34.1917: real time   17.1485
  RMM-DIIS:  cpu time  112.2738: real time   56.2977
    ORTHCH:  cpu time    6.0940: real time    3.0543
       DOS:  cpu time    0.0090: real time    0.0045
    CHARGE:  cpu time    6.1532: real time    5.8117
    MIXING:  cpu time    0.0231: real time    0.0116
    --------------------------------------------
      LOOP:  cpu time  159.3697: real time   82.8058

 eigenvalue-minimisations  : 16664
 total energy-change (2. order) : 0.4304125E+02  (-0.1335786E+01)
 number of electron     754.9999705 magnetization      69.6869263
 augmentation part      278.1123758 magnetization      53.4411808

 DIPCOR: dipole corrections for dipol
 direction  3 min pos     1,
 dipolmoment           0.000000      0.000000     -0.278876 electrons x Angstroem
 Tr[quadrupol]    -15334.597302

 energy correction for charged system         0.000000 eV
 dipol+quadrupol energy correction           -0.001945 eV
 added-field ion interaction          8.508974 eV  (added to PSCEN)


 Broyden mixing:
  rms(total) = 0.28440E+01    rms(broyden)= 0.28425E+01
  rms(prec ) = 0.31489E+01
  weight for this iteration     100.00

 eigenvalues of (default mixing * dielectric matrix)
  average eigenvalue GAMMA=   0.6156
  1.7652  0.5465  0.3217  0.3217  0.1230

 Free energy of the ion-electron system (eV)
  ---------------------------------------------------
  alpha Z        PSCENC =       976.71000734
  Ewald energy   TEWEN  =    445280.35075001
  -Hartree energ DENC   =   -504617.87923687
  -exchange      EXHF   =         0.00000000
  -V(xc)+E(xc)   XCENC  =     -1343.00058360
  PAW double counting   =     70443.65085685   -66647.08670795
  entropy T*S    EENTRO =        -0.09462946
  eigenvalues    EBANDS =     -3545.49026393
  atomic energy  EATOM  =     59055.46611198
  Solvation  Ediel_sol  =         0.00000000
  ---------------------------------------------------
  free energy    TOTEN  =      -397.37369564 eV

  energy without entropy =     -397.27906618  energy(sigma->0) =     -397.34215249


--------------------------------------------------------------------------------------------------------




--------------------------------------- Iteration      1(  11)  ---------------------------------------


    POTLOK:  cpu time    0.5535: real time    0.4280
    SETDIJ:  cpu time    0.0550: real time    0.0331
    EDDIAG:  cpu time   36.3850: real time   18.2539
  RMM-DIIS:  cpu time  112.6857: real time   56.5064
    ORTHCH:  cpu time    6.1084: real time    3.0615
       DOS:  cpu time    0.0092: real time    0.0046
    CHARGE:  cpu time    6.4474: real time    6.1073
    MIXING:  cpu time    0.0219: real time    0.0110
    --------------------------------------------
      LOOP:  cpu time  162.2661: real time   84.4058

 eigenvalue-minimisations  : 16674
 total energy-change (2. order) : 0.1653929E+01  (-0.1110798E+01)
 number of electron     754.9999704 magnetization      67.2346057
 augmentation part      279.7220643 magnetization      53.0501553

 DIPCOR: dipole corrections for dipol
 direction  3 min pos     1,
 dipolmoment           0.000000      0.000000      0.046216 electrons x Angstroem
 Tr[quadrupol]    -15334.361141

 energy correction for charged system         0.000000 eV
 dipol+quadrupol energy correction           -0.000053 eV
 added-field ion interaction         -1.410123 eV  (added to PSCEN)


 Broyden mixing:
  rms(total) = 0.20990E+01    rms(broyden)= 0.20985E+01
  rms(prec ) = 0.22513E+01
  weight for this iteration     100.00

 eigenvalues of (default mixing * dielectric matrix)
  average eigenvalue GAMMA=   0.6304
  1.8850  0.7449  0.3960  0.3960  0.2366  0.1239

 Free energy of the ion-electron system (eV)
  ---------------------------------------------------
  alpha Z        PSCENC =       966.79280151
  Ewald energy   TEWEN  =    445280.35075001
  -Hartree energ DENC   =   -504629.93575287
  -exchange      EXHF   =         0.00000000
  -V(xc)+E(xc)   XCENC  =     -1346.55168840
  PAW double counting   =     70859.36593659   -67065.18863053
  entropy T*S    EENTRO =        -0.05602671
  eigenvalues    EBANDS =     -3515.96326865
  atomic energy  EATOM  =     59055.46611198
  Solvation  Ediel_sol  =         0.00000000
  ---------------------------------------------------
  free energy    TOTEN  =      -395.71976707 eV

  energy without entropy =     -395.66374036  energy(sigma->0) =     -395.70109150


--------------------------------------------------------------------------------------------------------




--------------------------------------- Iteration      1(  12)  ---------------------------------------


    POTLOK:  cpu time    0.5490: real time    0.4424
    SETDIJ:  cpu time    0.0550: real time    0.0330
    EDDIAG:  cpu time   34.1102: real time   17.1091
  RMM-DIIS:  cpu time  112.6274: real time   56.4707
    ORTHCH:  cpu time    6.1026: real time    3.0624
       DOS:  cpu time    0.0091: real time    0.0045
    CHARGE:  cpu time    6.0101: real time    5.6703
    MIXING:  cpu time    0.0254: real time    0.0127
    --------------------------------------------
      LOOP:  cpu time  159.4887: real time   82.8051

 eigenvalue-minimisations  : 16673
 total energy-change (2. order) :-0.3610593E+00  (-0.3160501E+00)
 number of electron     754.9999706 magnetization      65.7722943
 augmentation part      277.1280177 magnetization      49.7959925

 DIPCOR: dipole corrections for dipol
 direction  3 min pos     1,
 dipolmoment           0.000000      0.000000     -0.201462 electrons x Angstroem
 Tr[quadrupol]    -15337.733605

 energy correction for charged system         0.000000 eV
 dipol+quadrupol energy correction           -0.001015 eV
 added-field ion interaction          6.146944 eV  (added to PSCEN)


 Broyden mixing:
  rms(total) = 0.19635E+01    rms(broyden)= 0.19628E+01
  rms(prec ) = 0.21390E+01
  weight for this iteration     100.00

 eigenvalues of (default mixing * dielectric matrix)
  average eigenvalue GAMMA=   0.5953
  1.9308  0.8419  0.4543  0.3316  0.2436  0.2436  0.1214

 Free energy of the ion-electron system (eV)
  ---------------------------------------------------
  alpha Z        PSCENC =       974.34890692
  Ewald energy   TEWEN  =    445280.35075001
  -Hartree energ DENC   =   -504763.85402811
  -exchange      EXHF   =         0.00000000
  -V(xc)+E(xc)   XCENC  =     -1346.83007319
  PAW double counting   =     71229.71581431   -67433.40140716
  entropy T*S    EENTRO =        -0.04868790
  eigenvalues    EBANDS =     -3391.82821319
  atomic energy  EATOM  =     59055.46611198
  Solvation  Ediel_sol  =         0.00000000
  ---------------------------------------------------
  free energy    TOTEN  =      -396.08082633 eV

  energy without entropy =     -396.03213842  energy(sigma->0) =     -396.06459702


--------------------------------------------------------------------------------------------------------




--------------------------------------- Iteration      1(  13)  ---------------------------------------


    POTLOK:  cpu time    0.5448: real time    0.4393
    SETDIJ:  cpu time    0.0555: real time    0.0333
    EDDIAG:  cpu time   34.1658: real time   17.1351
  RMM-DIIS:  cpu time  112.9231: real time   56.6236
    ORTHCH:  cpu time    6.0775: real time    3.0460
       DOS:  cpu time    0.0091: real time    0.0046
    CHARGE:  cpu time    6.1443: real time    5.8100
    MIXING:  cpu time    0.0262: real time    0.0131
    --------------------------------------------
      LOOP:  cpu time  159.9463: real time   83.1052

 eigenvalue-minimisations  : 16674
 total energy-change (2. order) :-0.2674526E+01  (-0.2381458E+00)
 number of electron     754.9999698 magnetization      62.9434537
 augmentation part      277.5300212 magnetization      48.3699059

 DIPCOR: dipole corrections for dipol
 direction  3 min pos     1,
 dipolmoment           0.000000      0.000000      0.105716 electrons x Angstroem
 Tr[quadrupol]    -15338.371182

 energy correction for charged system         0.000000 eV
 dipol+quadrupol energy correction           -0.000279 eV
 added-field ion interaction         -3.225582 eV  (added to PSCEN)


 Broyden mixing:
  rms(total) = 0.15777E+01    rms(broyden)= 0.15775E+01
  rms(prec ) = 0.16840E+01
  weight for this iteration     100.00

 eigenvalues of (default mixing * dielectric matrix)
  average eigenvalue GAMMA=   0.6087
  2.0092  0.9162  0.4903  0.4588  0.4588  0.2347  0.1205  0.1809

 Free energy of the ion-electron system (eV)
  ---------------------------------------------------
  alpha Z        PSCENC =       964.97711662
  Ewald energy   TEWEN  =    445280.35075001
  -Hartree energ DENC   =   -504809.19361848
  -exchange      EXHF   =         0.00000000
  -V(xc)+E(xc)   XCENC  =     -1349.13157883
  PAW double counting   =     71414.89087413   -67619.18481706
  entropy T*S    EENTRO =        -0.05107120
  eigenvalues    EBANDS =     -3336.87911975
  atomic energy  EATOM  =     59055.46611198
  Solvation  Ediel_sol  =         0.00000000
  ---------------------------------------------------
  free energy    TOTEN  =      -398.75535260 eV

  energy without entropy =     -398.70428140  energy(sigma->0) =     -398.73832886


--------------------------------------------------------------------------------------------------------




--------------------------------------- Iteration      1(  14)  ---------------------------------------


    POTLOK:  cpu time    0.5421: real time    0.4556
    SETDIJ:  cpu time    0.0551: real time    0.0331
    EDDIAG:  cpu time   33.9524: real time   17.0220
  RMM-DIIS:  cpu time  113.6280: real time   57.2720
    ORTHCH:  cpu time    6.0954: real time    3.0570
       DOS:  cpu time    0.0090: real time    0.0045
    CHARGE:  cpu time    6.0727: real time    5.7310
    MIXING:  cpu time    0.0256: real time    0.0129
    --------------------------------------------
      LOOP:  cpu time  160.3804: real time   83.5881

 eigenvalue-minimisations  : 16679
 total energy-change (2. order) :-0.4928277E+01  (-0.1670798E+00)
 number of electron     754.9999694 magnetization      58.8873559
 augmentation part      278.1564531 magnetization      45.2662243

 DIPCOR: dipole corrections for dipol
 direction  3 min pos     1,
 dipolmoment           0.000000      0.000000      0.320163 electrons x Angstroem
 Tr[quadrupol]    -15338.829887

 energy correction for charged system         0.000000 eV
 dipol+quadrupol energy correction           -0.002563 eV
 added-field ion interaction         -9.768714 eV  (added to PSCEN)


 Broyden mixing:
  rms(total) = 0.15863E+01    rms(broyden)= 0.15861E+01
  rms(prec ) = 0.17550E+01
  weight for this iteration     100.00

 eigenvalues of (default mixing * dielectric matrix)
  average eigenvalue GAMMA=   0.6285
  2.1326  1.0748  0.7781  0.5178  0.3671  0.2468  0.2468  0.1214  0.1711

 Free energy of the ion-electron system (eV)
  ---------------------------------------------------
  alpha Z        PSCENC =       958.43170009
  Ewald energy   TEWEN  =    445280.35075001
  -Hartree energ DENC   =   -504830.02082168
  -exchange      EXHF   =         0.00000000
  -V(xc)+E(xc)   XCENC  =     -1352.22622697
  PAW double counting   =     71693.81249152   -67900.11835986
  entropy T*S    EENTRO =        -0.03423327
  eigenvalues    EBANDS =     -3309.34504174
  atomic energy  EATOM  =     59055.46611198
  Solvation  Ediel_sol  =         0.00000000
  ---------------------------------------------------
  free energy    TOTEN  =      -403.68362993 eV

  energy without entropy =     -403.64939665  energy(sigma->0) =     -403.67221884


--------------------------------------------------------------------------------------------------------




--------------------------------------- Iteration      1(  15)  ---------------------------------------


    POTLOK:  cpu time    0.5579: real time    0.4154
    SETDIJ:  cpu time    0.0551: real time    0.0332
    EDDIAG:  cpu time   34.0731: real time   17.0869
  RMM-DIIS:  cpu time  113.0037: real time   56.6613
    ORTHCH:  cpu time    6.0814: real time    3.0534
[...]
   0.870E+02 0.125E+02 -.193E+04   -.869E+02 -.120E+02 0.193E+04   -.109E+00 -.477E+00 0.765E+00   0.139E-01 0.279E-01 0.143E-01
   0.785E+02 -.877E+01 -.194E+04   -.784E+02 0.847E+01 0.193E+04   -.828E-01 0.320E+00 0.392E+00   0.119E-01 -.559E-02 -.706E-02
   0.163E+02 0.580E+01 -.187E+04   -.162E+02 -.611E+01 0.187E+04   -.190E+00 0.344E+00 0.150E+01   0.130E-01 -.305E-01 0.164E-01
   0.186E+02 0.752E+02 -.192E+04   -.182E+02 -.750E+02 0.192E+04   -.395E+00 -.185E+00 0.783E+00   -.117E-01 -.331E-02 0.378E-01
   0.607E+02 0.311E+02 -.182E+04   -.592E+02 -.298E+02 0.182E+04   -.153E+01 -.136E+01 0.845E+00   -.185E-01 0.309E-01 0.106E-01
   0.453E+02 -.336E+02 -.183E+04   -.451E+02 0.330E+02 0.182E+04   -.139E+00 0.559E+00 0.263E+01   -.840E-02 0.384E-02 -.620E-02
   0.213E+02 -.668E+02 -.190E+04   -.208E+02 0.666E+02 0.190E+04   -.564E+00 0.225E+00 0.494E+00   -.432E-02 -.300E-01 0.120E-01
   -.156E+02 0.517E+02 -.192E+04   0.152E+02 -.514E+02 0.192E+04   0.478E+00 -.245E+00 0.635E+00   -.105E-01 -.260E-02 0.600E-01
   -.702E+02 0.254E+02 -.184E+04   0.692E+02 -.245E+02 0.184E+04   0.920E+00 -.887E+00 0.165E+01   -.662E-02 0.348E-01 0.376E-01
   -.633E+02 -.254E+02 -.179E+04   0.639E+02 0.254E+02 0.179E+04   -.567E+00 -.342E-01 0.253E+01   -.171E-01 -.442E-03 0.235E-01
   -.904E+01 -.356E+02 -.193E+04   0.902E+01 0.354E+02 0.193E+04   0.374E-01 0.267E+00 -.372E+00   -.135E-01 -.358E-01 0.356E-01
   -.134E+02 0.799E-01 -.186E+04   0.130E+02 0.491E+00 0.185E+04   0.403E+00 -.578E+00 0.172E+01   0.120E-01 0.162E-02 0.558E-01
   -.748E+02 0.342E+01 -.197E+04   0.744E+02 -.324E+01 0.197E+04   0.395E+00 -.226E+00 0.508E+00   0.588E-02 0.313E-01 0.380E-01
   -.384E+02 -.770E+02 -.192E+04   0.383E+02 0.765E+02 0.192E+04   0.788E-01 0.512E+00 0.726E+00   0.449E-02 -.391E-02 0.196E-01
   -.314E+02 0.584E+02 -.188E+04   0.309E+02 -.592E+02 0.188E+04   0.492E+00 0.815E+00 0.875E+00   0.164E-02 -.324E-01 0.379E-01
 -----------------------------------------------------------------------------------------------
   0.143E+02 0.122E+02 0.342E+03   -.156E-12 0.199E-12 0.102E-10   -.143E+02 -.122E+02 -.344E+03   -.188E-01 -.219E-01 0.216E+01
 
 
 POSITION                                       TOTAL-FORCE (eV/Angst)
 -----------------------------------------------------------------------------------
      4.01209      3.31750     19.34148         0.009358      0.000199      0.004320
      4.11828      0.09438     19.51774         0.000513      0.000678      0.016324
      3.85177      4.55011     19.63295        -0.010173     -0.010933     -0.001573
      8.16021      4.19097     19.47799        -0.006994     -0.000600      0.005894
      7.19662      1.05426     19.32951         0.005455     -0.002003      0.013861
      6.98810      7.94491     19.50973        -0.001328      0.008620      0.006457
      0.05400      4.09867     19.50399         0.003783      0.001372      0.012050
      1.09521      1.07768     19.30146        -0.001094      0.000773     -0.002343
      1.01660      7.14222     19.32606        -0.000896      0.000084      0.008572
      9.70654      9.65552     19.24055        -0.000169      0.000532      0.009794
      3.96334      8.25774     19.56836         0.000556      0.002050      0.009813
      4.11011      0.42279     20.66282        -0.000980      0.000876     -0.015836
      4.90102      5.29387     19.92840         0.007439      0.000141      0.000646
      7.96592      4.28720     20.64892        -0.010431     -0.000352     -0.007722
      7.25291      0.98729     20.53374         0.009662     -0.001608     -0.012959
      7.08467      8.01307     20.69478        -0.007178      0.015376     -0.005511
      0.30957      4.08522     20.66790         0.010294     -0.001438     -0.013736
      1.05623      1.04166     20.50634        -0.004903     -0.001215      0.005548
      0.97042      7.19062     20.53059         0.000738     -0.002514     -0.010317
      9.72088      9.67602     20.45017        -0.001640     -0.000282     -0.019161
      3.92059      8.03572     20.73516         0.002334     -0.006075     -0.009542
      1.37275      1.37275     12.08797        -0.017345     -0.032616     -0.002098
      1.37275      4.11824     12.08797        -0.034821     -0.013355     -0.003707
      1.37275      6.86373     12.08797        -0.000044      0.023569     -0.010749
      1.37275      9.60922     12.08797         0.061818      0.005380      0.083360
      4.11824      1.37275     12.08797        -0.006093     -0.058840      0.041696
      4.11824      4.11824     12.08797         0.028709      0.021876     -0.022615
      4.11824      6.86373     12.08797         0.008649      0.072430      0.028918
      4.11824      9.60922     12.08797        -0.007980      0.012906     -0.144794
      6.86373      1.37275     12.08797         0.003125     -0.000981     -0.012252
      6.86373      4.11824     12.08797         0.045730      0.009968      0.030193
      6.86373      6.86373     12.08797         0.022411      0.014150     -0.003071
      6.86373      9.60922     12.08797        -0.060189      0.004299      0.028330
      9.60922      1.37275     12.08797        -0.012050      0.025856      0.028796
      9.60922      4.11824     12.08797        -0.003685     -0.013615     -0.123470
      9.60922      6.86373     12.08797         0.003501     -0.012441      0.015160
      9.60922      9.60922     12.08797        -0.015044     -0.031003      0.066448
     10.98078     10.97854     14.05195        -0.000070     -0.001700      0.000437
     10.97026      2.74067     14.04720         0.001845     -0.001401     -0.000268
     10.97424      5.48662     14.04280        -0.001598     -0.001204      0.000506
      0.00309      8.22845     14.05293         0.000536     -0.000828     -0.000875
      2.74841     10.96451     14.05733        -0.000672      0.000486     -0.000706
      2.73642      2.73412     14.02516        -0.000720      0.000251      0.001593
      2.73959      5.50990     14.03038         0.000615      0.002419     -0.000074
      2.75416      8.24899     14.05999         0.000133      0.000050     -0.000296
      5.48277     10.96991     14.05215         0.000142     -0.001459      0.000007
      5.50203      2.73977     14.03258         0.000612     -0.000049      0.002342
      5.50883      5.51789     14.03130        -0.003092     -0.000831      0.000335
      5.48230      8.26087     14.05709        -0.000035      0.000437     -0.000243
      8.22797      0.00087     14.04880        -0.001289     -0.000493     -0.000353
      8.24473      2.74675     14.05732        -0.002308     -0.000841     -0.000519
      8.25804      5.48374     14.05274         0.002427     -0.000073     -0.000437
      8.22852      8.23300     14.05175         0.000052     -0.000243      0.001796
      1.36359      1.36424     16.02677         0.001007      0.000775      0.001966
      1.35240      4.11346     15.95460         0.000349     -0.002913      0.002316
      1.37339      6.85699     16.02918         0.001611     -0.000295      0.001606
      1.39826      9.60075     16.02262         0.000060     -0.001740      0.001305
      4.11632      1.34867     15.96544        -0.000436      0.002189      0.001242
      4.12230      4.13914     15.91414         0.000190      0.000643     -0.000076
      4.13338      6.90808     15.99997        -0.001271     -0.001307      0.000897
      4.11054      9.61516     16.15099         0.000563      0.000593     -0.000007
      6.86576      1.37153     16.02895        -0.001734      0.002755     -0.001503
      6.88888      4.12839     15.97525        -0.001752     -0.003031     -0.000653
      6.88811      6.89358     16.02090        -0.000124      0.000629      0.000381
      6.81648      9.61873     16.03484         0.000322     -0.002570     -0.001686
      9.60249      1.39622     16.02197        -0.001445     -0.001996      0.000416
      9.63748      4.09301     16.09555        -0.000529     -0.000998      0.000899
      9.61380      6.83524     16.03183        -0.002735     -0.002436     -0.000866
      9.59418      9.59542     15.99509        -0.001867     -0.001301     -0.000717
     10.94954     10.94411     18.01504         0.000653     -0.000842     -0.002164
      0.02795      2.67357     18.12519         0.000956     -0.001288     -0.000613
      0.10489      5.54394     18.14670        -0.002270     -0.002533      0.001546
     10.92000      8.27059     18.02970         0.001026      0.001455      0.001025
      2.68148      0.04451     18.13351        -0.000047     -0.001338      0.000611
      2.71748      2.75735     17.93698        -0.002889     -0.004306     -0.002248
      2.79766      5.42392     17.94293        -0.002232      0.001278      0.002697
      2.62954      8.12111     18.13621        -0.001560     -0.000369      0.002782
      5.55609      0.13378     18.14835        -0.000079     -0.001619      0.003462
      5.44244      2.83448     17.93433         0.002246     -0.003127     -0.004093
      5.61244      5.55206     17.91585         0.000413      0.000773     -0.002452
      5.46928      8.25678     18.22930        -0.003415     -0.001797      0.000016
      8.27863     10.93751     18.01727         0.002000     -0.000547     -0.001301
      8.11618      2.67316     18.17143        -0.001099      0.000067     -0.000656
      8.28947      5.50450     18.05073         0.000070      0.000531     -0.002315
      8.25853      8.23779     18.05679        -0.003597     -0.001119      0.000215
 -----------------------------------------------------------------------------------
    total drift:                                0.009541      0.000632      0.007213


--------------------------------------------------------------------------------------------------------



  FREE ENERGIE OF THE ION-ELECTRON SYSTEM (eV)
  ---------------------------------------------------
  free  energy   TOTEN  =      -487.48581307 eV

  energy  without entropy=     -487.33144763  energy(sigma->0) =     -487.43435792
 
 d Force = 0.7638332E-04[ 0.549E-04, 0.979E-04]  d Energy = 0.4006889E-04 0.363E-04
 d Force =-0.8177313E+00[-0.818E+00,-0.818E+00]  d Ewald  =-0.8177320E+00 0.647E-06


--------------------------------------------------------------------------------------------------------


    POTLOK:  cpu time    0.4225: real time    0.4011


--------------------------------------------------------------------------------------------------------


 Conjugate gradient step on ions:
 trial-energy change:   -0.000040  1 .order   -0.000076   -0.000098   -0.000055
  (g-gl).g = 0.301E-03      g.g   = 0.281E-03  gl.gl    = 0.452E-03
 g(Force)  = 0.281E-03   g(Stress)= 0.000E+00 ortho     = 0.463E-05
 gamma     =   0.66657
 trial     =   0.34481
 opt step  =   0.78407  (harmonic =   0.78407) maximal distance =0.00140210
 next E    =  -487.485884   (d E  =  -0.00011)


--------------------------------------------------------------------------------------------------------


  
 reached required accuracy - stopping structural energy minimisation
     LOOP+:  cpu time  884.0708: real time  460.8263
    4ORBIT:  cpu time    0.0000: real time    0.0000
 


 total charge     
 
# of ion       s       p       d       tot
------------------------------------------
    1        1.307   2.394   0.000   3.701
    2        1.315   2.368   0.000   3.683
    3        1.274   2.464   0.000   3.739
    4        1.311   2.372   0.000   3.684
    5        1.298   2.350   0.000   3.648
    6        1.309   2.371   0.000   3.681
    7        1.313   2.370   0.000   3.683
    8        1.300   2.344   0.000   3.644
    9        1.298   2.351   0.000   3.649
   10        1.297   2.337   0.000   3.634
   11        1.314   2.372   0.000   3.686
   12        1.640   3.439   0.000   5.079
   13        1.619   3.398   0.000   5.017
   14        1.640   3.439   0.000   5.079
   15        1.635   3.438   0.000   5.073
   16        1.640   3.440   0.000   5.079
   17        1.640   3.440   0.000   5.080
   18        1.636   3.439   0.000   5.075
   19        1.636   3.439   0.000   5.075
   20        1.635   3.438   0.000   5.073
   21        1.641   3.440   0.000   5.081
   22        0.443   0.306   8.520   9.269
   23        0.442   0.308   8.519   9.269
   24        0.444   0.305   8.520   9.270
   25        0.444   0.304   8.518   9.266
   26        0.443   0.307   8.518   9.268
   27        0.441   0.305   8.524   9.271
   28        0.444   0.307   8.517   9.268
   29        0.443   0.307   8.527   9.277
   30        0.442   0.305   8.523   9.271
   31        0.443   0.306   8.519   9.268
   32        0.443   0.305   8.522   9.270
   33        0.445   0.305   8.520   9.270
   34        0.445   0.304   8.521   9.269
   35        0.443   0.307   8.526   9.276
   36        0.444   0.305   8.520   9.269
   37        0.441   0.303   8.523   9.267
   38        0.478   0.461   8.476   9.415
   39        0.484   0.474   8.465   9.423
   40        0.483   0.471   8.472   9.426
   41        0.478   0.462   8.474   9.414
   42        0.481   0.469   8.468   9.418
   43        0.483   0.473   8.467   9.423
   44        0.482   0.473   8.468   9.423
   45        0.480   0.468   8.468   9.417
   46        0.482   0.470   8.470   9.422
   47        0.482   0.473   8.465   9.420
   48        0.481   0.471   8.466   9.418
   49        0.482   0.470   8.470   9.421
   50        0.477   0.463   8.473   9.414
   51        0.484   0.470   8.469   9.423
   52        0.480   0.469   8.469   9.419
   53        0.479   0.464   8.473   9.417
   54        0.492   0.460   8.481   9.432
   55        0.482   0.456   8.493   9.431
   56        0.488   0.460   8.477   9.425
   57        0.477   0.453   8.488   9.418
   58        0.475   0.447   8.497   9.419
   59        0.480   0.465   8.485   9.430
   60        0.477   0.445   8.487   9.410
   61        0.472   0.430   8.476   9.379
   62        0.488   0.457   8.483   9.428
   63        0.481   0.459   8.484   9.424
   64        0.489   0.466   8.472   9.426
   65        0.474   0.445   8.492   9.410
   66        0.478   0.456   8.485   9.418
   67        0.471   0.434   8.484   9.389
   68        0.483   0.460   8.485   9.428
   69        0.492   0.460   8.495   9.447
   70        0.473   0.540   8.530   9.543
   71        0.455   0.506   8.501   9.463
   72        0.456   0.522   8.496   9.475
   73        0.471   0.536   8.534   9.541
   74        0.449   0.499   8.506   9.454
   75        0.480   0.501   8.533   9.514
   76        0.440   0.409   8.558   9.407
   77        0.464   0.527   8.500   9.490
   78        0.452   0.507   8.503   9.462
   79        0.460   0.446   8.536   9.442
   80        0.452   0.412   8.518   9.381
   81        0.457   0.555   8.492   9.505
   82        0.467   0.515   8.538   9.520
   83        0.443   0.503   8.498   9.445
   84        0.480   0.483   8.527   9.490
   85        0.479   0.542   8.513   9.534
--------------------------------------------------
tot         60.561  88.091 543.898 692.550
 


 magnetization (x)
 
# of ion       s       p       d       tot
------------------------------------------
    1        0.000  -0.001   0.000  -0.001
    2        0.000  -0.001   0.000  -0.001
    3       -0.000  -0.000   0.000  -0.000
    4        0.000  -0.001   0.000  -0.000
    5        0.000  -0.001   0.000  -0.000
    6        0.000  -0.000   0.000   0.000
    7        0.000  -0.001   0.000  -0.001
    8        0.000  -0.000   0.000  -0.000
    9        0.000  -0.000   0.000  -0.000
   10       -0.000   0.000   0.000   0.000
   11        0.000  -0.001   0.000  -0.001
   12       -0.000  -0.001   0.000  -0.001
   13        0.000   0.002   0.000   0.002
   14       -0.000  -0.001   0.000  -0.001
   15       -0.000  -0.001   0.000  -0.001
   16       -0.000  -0.000   0.000  -0.000
   17       -0.000  -0.001   0.000  -0.001
   18       -0.000  -0.001   0.000  -0.001
   19       -0.000  -0.001   0.000  -0.001
   20       -0.000   0.000   0.000   0.000
   21       -0.000  -0.001   0.000  -0.001
   22       -0.000  -0.001   0.037   0.037
   23       -0.000  -0.001   0.047   0.046
   24       -0.000  -0.001   0.039   0.039
   25       -0.000  -0.000   0.037   0.036
   26       -0.000  -0.000   0.046   0.045
   27       -0.000  -0.001   0.044   0.043
   28       -0.000  -0.000   0.047   0.047
   29       -0.000  -0.001   0.039   0.039
   30        0.000  -0.000   0.038   0.038
   31       -0.000  -0.000   0.047   0.047
   32       -0.000  -0.001   0.038   0.037
   33       -0.000  -0.000   0.039   0.038
   34       -0.000  -0.000   0.038   0.037
   35       -0.000  -0.001   0.039   0.038
   36       -0.000  -0.000   0.040   0.039
   37       -0.000  -0.000   0.029   0.029
   38       -0.000  -0.001   0.033   0.032
   39       -0.000  -0.001   0.042   0.041
   40       -0.000  -0.001   0.042   0.041
   41       -0.000  -0.001   0.032   0.031
   42       -0.000  -0.001   0.039   0.039
   43       -0.000  -0.001   0.051   0.050
   44       -0.000  -0.001   0.050   0.049
   45       -0.000  -0.001   0.041   0.040
   46       -0.000  -0.001   0.042   0.041
   47       -0.000  -0.001   0.049   0.048
   48       -0.000  -0.001   0.050   0.049
   49       -0.000  -0.001   0.041   0.040
   50       -0.000  -0.001   0.034   0.034
   51       -0.000  -0.001   0.038   0.037
   52       -0.000  -0.001   0.040   0.039
   53       -0.000  -0.001   0.033   0.032
   54       -0.000  -0.001   0.020   0.019
   55       -0.000  -0.001   0.039   0.038
   56       -0.000  -0.001   0.021   0.020
   57       -0.000  -0.001   0.025   0.024
   58       -0.000  -0.001   0.036   0.036
   59       -0.000  -0.001   0.036   0.035
   60       -0.000  -0.001   0.036   0.035
   61       -0.000  -0.001   0.020   0.019
   62       -0.000  -0.001   0.021   0.020
   63       -0.000  -0.001   0.034   0.033
   64       -0.000  -0.001   0.024   0.023
   65       -0.000  -0.001   0.026   0.025
   66       -0.000  -0.001   0.026   0.025
   67       -0.000  -0.001   0.025   0.024
   68       -0.000  -0.001   0.023   0.022
   69       -0.000  -0.001   0.013   0.012
   70       -0.000  -0.000   0.002   0.002
   71       -0.000  -0.000   0.003   0.002
   72       -0.000  -0.000   0.002   0.002
   73       -0.000  -0.000   0.002   0.001
   74       -0.000  -0.000   0.003   0.002
   75       -0.000  -0.000   0.005   0.005
   76       -0.000  -0.000   0.008   0.008
   77       -0.000  -0.000   0.003   0.002
   78       -0.000  -0.000   0.003   0.003
   79       -0.000  -0.000   0.008   0.007
   80       -0.000  -0.000   0.015   0.015
   81       -0.000  -0.000   0.002   0.002
   82       -0.000  -0.000   0.002   0.002
   83       -0.000  -0.000   0.003   0.002
   84       -0.000  -0.000   0.004   0.004
   85       -0.000  -0.000   0.002   0.002
--------------------------------------------------
tot         -0.010  -0.046   1.790   1.735
 

 total amount of memory used by VASP MPI-rank0   427876. kBytes
=======================================================================

   base      :      30000. kBytes
   nonlr-proj:      58931. kBytes
   fftplans  :      11524. kBytes
   grid      :     101403. kBytes
   one-center:       2643. kBytes
   wavefun   :     223375. kBytes
 
  
  
 General timing and accounting informations for this job:
 ========================================================
  
                  Total CPU time used (sec):    19454.834
                            User time (sec):    18541.073
                          System time (sec):      913.761
                         Elapsed time (sec):    10241.385
  
                   Maximum memory used (kb):     1253152.
                   Average memory used (kb):           0.
  
                          Minor page faults:      3002728
                          Major page faults:           17
                 Voluntary context switches:       114008
