 vasp.5.4.4.18Apr17-6-g9f103f2a35 (build May 01 2020 14:57:12) complex          
  
 executed on             LinuxIFC date 2021.12.08  13:23:10
 running on  192 total cores
 distrk:  each k-point on  192 cores,    1 groups
 distr:  one band on NCORES_PER_BAND=   1 cores,  192 groups


--------------------------------------------------------------------------------------------------------


 INCAR:
 POTCAR:    PAW_PBE H 15Jun2001                   
 POTCAR:    PAW_PBE N 08Apr2002                   
 POTCAR:    PAW_PBE O 08Apr2002                   
 POTCAR:    PAW_PBE Pd 04Jan2005                  

 ----------------------------------------------------------------------------- 
|                                                                             |
|           W    W    AA    RRRRR   N    N  II  N    N   GGGG   !!!           |
|           W    W   A  A   R    R  NN   N  II  NN   N  G    G  !!!           |
|           W    W  A    A  R    R  N N  N  II  N N  N  G       !!!           |
|           W WW W  AAAAAA  RRRRR   N  N N  II  N  N N  G  GGG   !            |
|           WW  WW  A    A  R   R   N   NN  II  N   NN  G    G                |
|           W    W  A    A  R    R  N    N  II  N    N   GGGG   !!!           |
|                                                                             |
|      For optimal performance we recommend to set                            |
|        NCORE= 4 - approx SQRT( number of cores)                             |
|      NCORE specifies how many cores store one orbital (NPAR=cpu/NCORE).     |
|      This setting can  greatly improve the performance of VASP for DFT.     |
|      The default,   NCORE=1            might be grossly inefficient         |
|      on modern multi-core architectures or massively parallel machines.     |
|      Do your own testing !!!!                                               |
|      Unfortunately you need to use the default for GW and RPA calculations. |
|      (for HF NCORE is supported but not extensively tested yet)             |
|                                                                             |
 ----------------------------------------------------------------------------- 

 POTCAR:    PAW_PBE H 15Jun2001                   
   VRHFIN =H: ultrasoft test                                                    
   LEXCH  = PE                                                                  
   EATOM  =    12.4884 eV,    0.9179 Ry                                         
                                                                                
   TITEL  = PAW_PBE H 15Jun2001                                                 
   LULTRA =        F    use ultrasoft PP ?                                      
   IUNSCR =        0    unscreen: 0-lin 1-nonlin 2-no                           
   RPACOR =    0.000    partial core radius                                     
   POMASS =    1.000; ZVAL   =    1.000    mass and valenz                      
   RCORE  =    1.100    outmost cutoff radius                                   
   RWIGS  =    0.700; RWIGS  =    0.370    wigner-seitz radius (au A)           
   ENMAX  =  250.000; ENMIN  =  200.000 eV                                      
   RCLOC  =    0.701    cutoff for local pot                                    
   LCOR   =        T    correct aug charges                                     
   LPAW   =        T    paw PP                                                  
   EAUG   =  400.000                                                            
   RMAX   =    1.123    core radius for proj-oper                               
   RAUG   =    1.200    factor for augmentation sphere                          
   RDEP   =    1.112    radius for radial grids                                 
   RDEPT  =    0.926    core radius for aug-charge                              
                                                                                
   Atomic configuration                                                         
    2 entries                                                                   
     n  l   j            E        occ.                                          
     1  0  0.50        -6.4927   1.0000                                         
     2  1  0.50        -3.4015   0.0000                                         
   Description                                                                  
     l       E           TYP  RCUT    TYP  RCUT                                 
     0     -6.4927494     23  1.100                                             
     0      6.8029130     23  1.100                                             
     1     -4.0817478     23  1.100                                             
  local pseudopotential read in
  atomic valenz-charges read in
  non local Contribution for L=           0  read in
    real space projection operators read in
  non local Contribution for L=           0  read in
    real space projection operators read in
  non local Contribution for L=           1  read in
    real space projection operators read in
    PAW grid and wavefunctions read in
 
   number of l-projection  operators is LMAX  =           3
   number of lm-projection operators is LMMAX =           5
 
 POTCAR:    PAW_PBE N 08Apr2002                   
   VRHFIN =N: s2p3                                                              
   LEXCH  = PE                                                                  
   EATOM  =   264.5486 eV,   19.4438 Ry                                         
                                                                                
   TITEL  = PAW_PBE N 08Apr2002                                                 
   LULTRA =        F    use ultrasoft PP ?                                      
   IUNSCR =        1    unscreen: 0-lin 1-nonlin 2-no                           
   RPACOR =    1.200    partial core radius                                     
   POMASS =   14.001; ZVAL   =    5.000    mass and valenz                      
   RCORE  =    1.500    outmost cutoff radius                                   
   RWIGS  =    1.400; RWIGS  =    0.741    wigner-seitz radius (au A)           
   ENMAX  =  400.000; ENMIN  =  300.000 eV                                      
   ICORE  =        2    local potential                                         
   LCOR   =        T    correct aug charges                                     
   LPAW   =        T    paw PP                                                  
   EAUG   =  627.112                                                            
   DEXC   =    0.000                                                            
   RMAX   =    1.529    core radius for proj-oper                               
   RAUG   =    1.300    factor for augmentation sphere                          
   RDEP   =    1.514    radius for radial grids                                 
   RDEPT  =    1.338    core radius for aug-charge                              
                                                                                
   Atomic configuration                                                         
    4 entries                                                                   
     n  l   j            E        occ.                                          
     1  0  0.50      -384.7179   2.0000                                         
     2  0  0.50       -18.5828   2.0000                                         
     2  1  0.50        -7.0898   3.0000                                         
     3  2  1.50        -6.8029   0.0000                                         
   Description                                                                  
     l       E           TYP  RCUT    TYP  RCUT                                 
     0    -18.5828119     23  1.200                                             
     0    -13.5018863     23  1.200                                             
     1     -7.0897853     23  1.500                                             
     1      9.5240782     23  1.500                                             
     2     -6.8029130      7  1.500                                             
  local pseudopotential read in
  partial core-charges read in
  partial kinetic energy density read in
  atomic valenz-charges read in
  non local Contribution for L=           0  read in
    real space projection operators read in
  non local Contribution for L=           0  read in
    real space projection operators read in
  non local Contribution for L=           1  read in
    real space projection operators read in
  non local Contribution for L=           1  read in
    real space projection operators read in
    PAW grid and wavefunctions read in
 
   number of l-projection  operators is LMAX  =           4
   number of lm-projection operators is LMMAX =           8
 
 POTCAR:    PAW_PBE O 08Apr2002                   
   VRHFIN =O: s2p4                                                              
   LEXCH  = PE                                                                  
   EATOM  =   432.3788 eV,   31.7789 Ry                                         
                                                                                
   TITEL  = PAW_PBE O 08Apr2002                                                 
   LULTRA =        F    use ultrasoft PP ?                                      
   IUNSCR =        1    unscreen: 0-lin 1-nonlin 2-no                           
   RPACOR =    1.200    partial core radius                                     
   POMASS =   16.000; ZVAL   =    6.000    mass and valenz                      
   RCORE  =    1.520    outmost cutoff radius                                   
   RWIGS  =    1.550; RWIGS  =    0.820    wigner-seitz radius (au A)           
   ENMAX  =  400.000; ENMIN  =  300.000 eV                                      
   ICORE  =        2    local potential                                         
   LCOR   =        T    correct aug charges                                     
   LPAW   =        T    paw PP                                                  
   EAUG   =  605.392                                                            
   DEXC   =    0.000                                                            
   RMAX   =    1.553    core radius for proj-oper                               
   RAUG   =    1.300    factor for augmentation sphere                          
   RDEP   =    1.550    radius for radial grids                                 
   RDEPT  =    1.329    core radius for aug-charge                              
                                                                                
   Atomic configuration                                                         
    4 entries                                                                   
     n  l   j            E        occ.                                          
     1  0  0.50      -514.6923   2.0000                                         
     2  0  0.50       -23.9615   2.0000                                         
     2  1  0.50        -9.0305   4.0000                                         
     3  2  1.50        -9.5241   0.0000                                         
   Description                                                                  
     l       E           TYP  RCUT    TYP  RCUT                                 
     0    -23.9615318     23  1.200                                             
     0     -9.5240782     23  1.200                                             
     1     -9.0304911     23  1.520                                             
     1      8.1634956     23  1.520                                             
     2     -9.5240782      7  1.500                                             
  local pseudopotential read in
  partial core-charges read in
  partial kinetic energy density read in
  kinetic energy density of atom read in
  atomic valenz-charges read in
  non local Contribution for L=           0  read in
    real space projection operators read in
  non local Contribution for L=           0  read in
    real space projection operators read in
  non local Contribution for L=           1  read in
    real space projection operators read in
  non local Contribution for L=           1  read in
    real space projection operators read in
    PAW grid and wavefunctions read in
 
   number of l-projection  operators is LMAX  =           4
   number of lm-projection operators is LMMAX =           8
 
 POTCAR:    PAW_PBE Pd 04Jan2005                  
   VRHFIN =Pd : s1 d9                                                           
   LEXCH  = PE                                                                  
   EATOM  =   809.7530 eV,   59.5152 Ry                                         
                                                                                
   TITEL  = PAW_PBE Pd 04Jan2005                                                
   LULTRA =        F    use ultrasoft PP ?                                      
   IUNSCR =        1    unscreen: 0-lin 1-nonlin 2-no                           
   RPACOR =    2.000    partial core radius                                     
   POMASS =  106.420; ZVAL   =   10.000    mass and valenz                      
   RCORE  =    2.600    outmost cutoff radius                                   
   RWIGS  =    2.710; RWIGS  =    1.434    wigner-seitz radius (au A)           
   ENMAX  =  250.925; ENMIN  =  188.194 eV                                      
   ICORE  =        3    local potential                                         
   LCOR   =        T    correct aug charges                                     
   LPAW   =        T    paw PP                                                  
   EAUG   =  416.230                                                            
   DEXC   =    0.000                                                            
   RMAX   =    2.653    core radius for proj-oper                               
   RAUG   =    1.300    factor for augmentation sphere                          
   RDEP   =    2.734    radius for radial grids                                 
   RDEPT  =    2.103    core radius for aug-charge                              
                                                                                
   Atomic configuration                                                         
   12 entries                                                                   
     n  l   j            E        occ.                                          
     1  0  0.50    -24164.6631   2.0000                                         
     2  0  0.50     -3530.9218   2.0000                                         
     2  1  1.50     -3165.6822   6.0000                                         
     3  0  0.50      -639.4577   2.0000                                         
     3  1  1.50      -519.4532   6.0000                                         
     3  2  2.50      -328.9757  10.0000                                         
     4  0  0.50       -88.7014   2.0000                                         
     4  1  1.50       -54.4540   6.0000                                         
     4  2  2.50        -6.6878   9.0000                                         
     5  0  0.50        -4.3543   1.0000                                         
     5  1  0.50        -1.3606   0.0000                                         
     4  3  2.50        -1.3606   0.0000                                         
   Description                                                                  
     l       E           TYP  RCUT    TYP  RCUT                                 
     2     -6.6878251     23  2.400                                             
     2     -8.0484077     23  2.400                                             
     0     -4.3542939     23  2.400                                             
     0      4.3406793     23  2.400                                             
     1     -4.0817478     23  2.600                                             
     1     15.8380318     23  2.600                                             
     3     -4.0817478     23  2.400                                             
  local pseudopotential read in
  partial core-charges read in
  partial kinetic energy density read in
  atomic valenz-charges read in
  non local Contribution for L=           2  read in
    real space projection operators read in
  non local Contribution for L=           2  read in
    real space projection operators read in
  non local Contribution for L=           0  read in
    real space projection operators read in
  non local Contribution for L=           0  read in
    real space projection operators read in
  non local Contribution for L=           1  read in
    real space projection operators read in
  non local Contribution for L=           1  read in
    real space projection operators read in
    PAW grid and wavefunctions read in
 
   number of l-projection  operators is LMAX  =           6
   number of lm-projection operators is LMMAX =          18
 
 Optimization of the real space projectors (new method)

 maximal supplied QI-value         = 34.20
 optimisation between [QCUT,QGAM] = [  9.92, 20.18] = [ 27.55,114.04] Ry 
 Optimized for a Real-space Cutoff    1.34 Angstroem

   l    n(q)    QCUT    max X(q) W(low)/X(q) W(high)/X(q)  e(spline) 
   0      8     9.919    19.460    0.16E-03    0.20E-03    0.36E-06
   0      8     9.919    12.209    0.16E-03    0.20E-03    0.35E-06
   1      8     9.919     4.655    0.19E-03    0.46E-03    0.40E-06
 Optimization of the real space projectors (new method)

 maximal supplied QI-value         = 25.13
 optimisation between [QCUT,QGAM] = [ 10.05, 20.36] = [ 28.30,116.06] Ry 
 Optimized for a Real-space Cutoff    1.70 Angstroem

   l    n(q)    QCUT    max X(q) W(low)/X(q) W(high)/X(q)  e(spline) 
   0     10    10.053    79.467    0.61E-04    0.98E-04    0.61E-06
   0     10    10.053    66.151    0.60E-04    0.98E-04    0.61E-06
   1     10    10.053     8.350    0.17E-03    0.71E-03    0.45E-05
   1     10    10.053     5.531    0.18E-03    0.77E-03    0.49E-05
 Optimization of the real space projectors (new method)

 maximal supplied QI-value         = 24.76
 optimisation between [QCUT,QGAM] = [ 10.15, 20.30] = [ 28.85,115.39] Ry 
 Optimized for a Real-space Cutoff    1.51 Angstroem

   l    n(q)    QCUT    max X(q) W(low)/X(q) W(high)/X(q)  e(spline) 
   0      9    10.150    20.381    0.17E-03    0.18E-03    0.41E-06
   0      9    10.150    15.268    0.18E-03    0.20E-03    0.43E-06
   1      9    10.150     5.964    0.16E-03    0.20E-03    0.36E-06
   1      9    10.150     5.382    0.13E-03    0.16E-03    0.33E-06
 Optimization of the real space projectors (new method)

 maximal supplied QI-value         = 14.36
 optimisation between [QCUT,QGAM] = [ 10.20, 20.39] = [ 29.12,116.47] Ry 
 Optimized for a Real-space Cutoff    1.55 Angstroem

   l    n(q)    QCUT    max X(q) W(low)/X(q) W(high)/X(q)  e(spline) 
   2      9    10.197    59.108    0.12E-03    0.40E-04    0.11E-06
   2      9    10.197    58.101    0.12E-03    0.39E-04    0.12E-06
   0      9    10.197   102.235    0.41E-04    0.86E-05    0.83E-07
   0      9    10.197    58.388    0.37E-04    0.79E-05    0.78E-07
   1      9    10.197    22.191    0.25E-03    0.13E-03    0.84E-07
   1      9    10.197    15.590    0.21E-03    0.11E-03    0.74E-07
  PAW_PBE H 15Jun2001                   :
 energy of atom  1       EATOM=  -12.4884
 kinetic energy error for atom=    0.0098 (will be added to EATOM!!)
  PAW_PBE N 08Apr2002                   :
 energy of atom  2       EATOM= -264.5486
 kinetic energy error for atom=    0.0736 (will be added to EATOM!!)
  PAW_PBE O 08Apr2002                   :
 energy of atom  3       EATOM= -432.3788
 kinetic energy error for atom=    0.1156 (will be added to EATOM!!)
  PAW_PBE Pd 04Jan2005                  :
 energy of atom  4       EATOM= -809.7530
 kinetic energy error for atom=    0.0091 (will be added to EATOM!!)
 
 
 POSCAR: H N O Pd                                
  positions in direct lattice
  velocities in cartesian coordinates
 exchange correlation table for  LEXCH =        8
   RHO(1)=    0.500       N(1)  =     2000
   RHO(2)=  100.500       N(2)  =     4000
 


--------------------------------------------------------------------------------------------------------


 ion  position               nearest neighbor table
   1  0.378  0.583  0.670-   6 0.98
   2  0.377  0.228  0.675-   4 1.03
   3  0.511  0.608  0.684-   6 0.98
   4  0.375  0.190  0.644-   2 1.03   5 1.37  64 2.04  60 2.04
   5  0.374  0.066  0.649-   4 1.37  59 2.19  63 2.19
   6  0.454  0.541  0.678-   3 0.98   1 0.98  65 2.42
   7  0.125  0.125  0.403-   8 2.75  11 2.75  10 2.75  19 2.75  23 2.75  24 2.75  28 2.75  27 2.76

   8  0.125  0.375  0.403-   7 2.75   9 2.75  12 2.75  20 2.75  24 2.75  25 2.75  29 2.75  28 2.76

   9  0.125  0.625  0.403-   8 2.75  10 2.75  13 2.75  21 2.75  25 2.75  30 2.75  29 2.76  26 2.76

  10  0.125  0.875  0.403-   9 2.75  14 2.75   7 2.75  22 2.75  23 2.75  27 2.75  26 2.76  30 2.76

  11  0.375  0.125  0.403-   7 2.75  12 2.75  15 2.75  14 2.75  31 2.75  28 2.75  32 2.75  27 2.76

  12  0.375  0.375  0.403-   8 2.75  11 2.75  13 2.75  16 2.75  33 2.75  32 2.75  29 2.75  28 2.76

  13  0.375  0.625  0.403-   9 2.75  12 2.75  14 2.75  17 2.75  30 2.76  33 2.76  34 2.76  29 2.76

  14  0.375  0.875  0.403-  10 2.75  13 2.75  18 2.75  11 2.75  31 2.75  27 2.75  30 2.76  34 2.76

  15  0.625  0.125  0.403-  11 2.75  16 2.75  19 2.75  18 2.75  35 2.75  31 2.75  36 2.76  32 2.76

  16  0.625  0.375  0.403-  12 2.75  15 2.75  17 2.75  20 2.75  33 2.75  36 2.75  37 2.75  32 2.76

  17  0.625  0.625  0.403-  13 2.75  16 2.75  18 2.75  21 2.75  37 2.75  33 2.75  34 2.75  38 2.76

  18  0.625  0.875  0.403-  14 2.75  17 2.75  22 2.75  15 2.75  35 2.75  31 2.75  38 2.76  34 2.76

  19  0.875  0.125  0.403-  15 2.75  20 2.75   7 2.75  22 2.75  35 2.75  23 2.75  24 2.76  36 2.76

  20  0.875  0.375  0.403-  16 2.75  19 2.75  21 2.75   8 2.75  25 2.75  24 2.75  37 2.76  36 2.76

  21  0.875  0.625  0.403-  17 2.75  20 2.75  22 2.75   9 2.75  25 2.75  37 2.76  26 2.76  38 2.76

  22  0.875  0.875  0.403-  18 2.75  21 2.75  19 2.75  10 2.75  23 2.75  35 2.75  26 2.76  38 2.76

  23  0.000  1.000  0.468-  26 2.74  39 2.74  27 2.74  10 2.75  22 2.75  35 2.75  51 2.75  54 2.75
                             7 2.75  19 2.75  24 2.75  42 2.77
  24  0.000  0.250  0.468-  25 2.74  39 2.74  51 2.74  28 2.75  52 2.75   8 2.75  23 2.75  20 2.75
                            36 2.75   7 2.75  40 2.75  19 2.76
  25  1.000  0.500  0.468-  24 2.74  29 2.74  37 2.75  41 2.75  53 2.75  20 2.75  26 2.75  52 2.75
                             8 2.75  21 2.75   9 2.75  40 2.79
  26  0.000  0.750  0.468-  23 2.74  30 2.74  54 2.74  41 2.74  53 2.75  38 2.75  25 2.75  10 2.76
                            22 2.76   9 2.76  21 2.76  42 2.78
  27  0.250  1.000  0.468-  43 2.74  23 2.74  30 2.74  28 2.74  31 2.75  39 2.75  46 2.75  42 2.75
                            10 2.75  14 2.75   7 2.76  11 2.76
  28  0.250  0.250  0.468-  32 2.74  29 2.74  27 2.74  43 2.75  24 2.75  40 2.75  39 2.75  11 2.75
                             7 2.75  12 2.76  44 2.76   8 2.76
  29  0.250  0.499  0.468-  28 2.74  25 2.74  45 2.75  41 2.75  30 2.75  33 2.75   8 2.75  12 2.75
                            44 2.76   9 2.76  13 2.76  40 2.77
  30  0.250  0.750  0.468-  26 2.74  27 2.74  41 2.75  29 2.75  34 2.75  46 2.75   9 2.75  10 2.76
                            13 2.76  45 2.76  14 2.76  42 2.77
  31  0.500  1.000  0.468-  43 2.74  35 2.74  27 2.75  34 2.75  32 2.75  47 2.75  50 2.75  14 2.75
                            18 2.75  11 2.75  15 2.75  46 2.76
  32  0.500  0.250  0.468-  28 2.74  33 2.74  36 2.74  47 2.75  43 2.75  31 2.75  44 2.75  12 2.75
                            11 2.75  48 2.76  16 2.76  15 2.76
  33  0.500  0.500  0.468-  32 2.74  37 2.74  45 2.74  34 2.75  49 2.75  16 2.75  29 2.75  12 2.75
                            17 2.75  44 2.76  13 2.76  48 2.76
  34  0.500  0.750  0.468-  38 2.74  31 2.75  33 2.75  45 2.75  30 2.75  49 2.75  46 2.75  17 2.75
                            18 2.76  13 2.76  14 2.76  50 2.76
  35  0.750  1.000  0.468-  47 2.74  38 2.74  31 2.74  51 2.75  18 2.75  23 2.75  22 2.75  15 2.75
                            54 2.75  19 2.75  36 2.76  50 2.76
  36  0.749  0.251  0.468-  47 2.73  37 2.74  32 2.74  52 2.74  51 2.75  16 2.75  24 2.75  20 2.76
                            35 2.76  15 2.76  19 2.76  48 2.78
  37  0.750  0.500  0.468-  36 2.74  33 2.74  49 2.75  25 2.75  52 2.75  53 2.75  38 2.75  16 2.75
                            17 2.75  20 2.76  21 2.76  48 2.79
  38  0.750  0.750  0.468-  35 2.74  34 2.74  54 2.74  53 2.74  37 2.75  26 2.75  49 2.76  18 2.76
                            22 2.76  17 2.76  21 2.76  50 2.77
  39  0.124  0.125  0.533-  40 2.72  42 2.73  51 2.73  23 2.74  24 2.74  27 2.75  28 2.75  43 2.75
                            56 2.77  55 2.77  59 2.79  60 2.80
  40  0.126  0.373  0.534-  39 2.72  61 2.73  60 2.74  44 2.74  28 2.75  56 2.75  24 2.75  52 2.76
                            57 2.77  29 2.77  41 2.77  25 2.79
  41  0.125  0.625  0.533-  61 2.73  53 2.74  26 2.74  30 2.75  25 2.75  29 2.75  45 2.76  62 2.76
                            58 2.76  42 2.76  57 2.76  40 2.77
  42  0.126  0.876  0.534-  59 2.71  46 2.73  39 2.73  27 2.75  55 2.75  58 2.76  62 2.76  54 2.76
                            41 2.76  30 2.77  23 2.77  26 2.78
  43  0.375  0.124  0.533-  46 2.74  27 2.74  31 2.74  28 2.75  32 2.75  39 2.75  44 2.76  47 2.76
                            64 2.82  63 2.84  59 2.84  60 2.84
  44  0.375  0.375  0.533-  48 2.71  45 2.73  40 2.74  61 2.75  32 2.75  43 2.76  29 2.76  33 2.76
                            28 2.76  65 2.80  64 2.81  60 2.82
  45  0.376  0.624  0.533-  44 2.73  49 2.74  66 2.74  61 2.74  33 2.74  29 2.75  34 2.75  62 2.75
                            41 2.76  46 2.76  30 2.76  65 2.82
  46  0.375  0.875  0.533-  42 2.73  50 2.74  43 2.74  66 2.74  30 2.75  27 2.75  34 2.75  45 2.76
                            31 2.76  62 2.77  59 2.80  63 2.81
  47  0.626  0.125  0.533-  50 2.73  36 2.73  51 2.73  48 2.74  35 2.74  32 2.75  31 2.75  43 2.76
                            68 2.76  67 2.77  64 2.79  63 2.80
  48  0.622  0.374  0.534-  44 2.71  64 2.74  49 2.74  47 2.74  68 2.75  65 2.75  32 2.76  69 2.76
                            33 2.76  52 2.77  36 2.78  37 2.79
  49  0.625  0.624  0.533-  66 2.74  45 2.74  48 2.74  37 2.75  53 2.75  33 2.75  69 2.75  34 2.75
                            38 2.76  70 2.76  50 2.78  65 2.80
  50  0.624  0.877  0.534-  63 2.72  47 2.73  66 2.73  46 2.74  31 2.75  67 2.75  54 2.76  70 2.76
                            35 2.76  34 2.76  38 2.77  49 2.78
  51  0.875  0.125  0.533-  39 2.73  47 2.73  24 2.74  54 2.75  52 2.75  36 2.75  35 2.75  23 2.75
                            67 2.75  56 2.76  55 2.76  68 2.76
  52  0.875  0.375  0.533-  36 2.74  53 2.74  51 2.75  37 2.75  69 2.75  24 2.75  25 2.75  68 2.76
                            40 2.76  56 2.76  57 2.76  48 2.77
  53  0.875  0.625  0.533-  41 2.74  38 2.74  52 2.74  69 2.74  54 2.75  26 2.75  49 2.75  37 2.75
                            25 2.75  70 2.76  58 2.76  57 2.76
  54  0.875  0.875  0.533-  26 2.74  38 2.74  53 2.75  51 2.75  23 2.75  55 2.75  67 2.75  35 2.75
                            70 2.76  42 2.76  58 2.76  50 2.76
  55  0.998  0.000  0.598-  67 2.70  59 2.71  56 2.74  54 2.75  58 2.75  42 2.75  51 2.76  39 2.77

  56  0.998  0.249  0.598-  60 2.71  68 2.72  55 2.74  40 2.75  57 2.76  51 2.76  52 2.76  39 2.77

  57  0.999  0.500  0.598-  69 2.72  61 2.73  58 2.74  56 2.76  53 2.76  52 2.76  41 2.76  40 2.77

  58  1.000  0.750  0.598-  57 2.74  70 2.74  55 2.75  62 2.76  53 2.76  41 2.76  42 2.76  54 2.76

  59  0.245  0.996  0.600-   5 2.19  55 2.71  42 2.71  62 2.74  39 2.79  60 2.80  46 2.80  43 2.84
                            63 2.86
  60  0.245  0.251  0.600-   4 2.04  56 2.71  40 2.74  61 2.74  39 2.80  59 2.80  44 2.82  64 2.84
                            43 2.84
  61  0.248  0.501  0.597-  62 2.71  40 2.73  41 2.73  57 2.73  60 2.74  45 2.74  44 2.75  65 2.78

  62  0.251  0.747  0.598-  61 2.71  59 2.74  66 2.74  45 2.75  58 2.76  41 2.76  42 2.76  46 2.77

  63  0.505  0.997  0.600-   5 2.19  67 2.71  50 2.72  66 2.72  64 2.77  47 2.80  46 2.81  43 2.84
                            59 2.86
  64  0.504  0.249  0.600-   4 2.04  68 2.71  65 2.73  48 2.74  63 2.77  47 2.79  44 2.81  43 2.82
                            60 2.84
  65  0.501  0.498  0.601-   6 2.42  64 2.73  69 2.75  48 2.75  66 2.76  61 2.78  44 2.80  49 2.80
                            45 2.82
  66  0.500  0.749  0.597-  63 2.72  50 2.73  49 2.74  62 2.74  46 2.74  45 2.74  70 2.75  65 2.76

  67  0.752  0.000  0.598-  55 2.70  63 2.71  68 2.74  54 2.75  51 2.75  70 2.75  50 2.75  47 2.77

  68  0.751  0.250  0.598-  64 2.71  56 2.72  67 2.74  48 2.75  52 2.76  69 2.76  51 2.76  47 2.76

  69  0.752  0.501  0.598-  57 2.72  70 2.73  53 2.74  52 2.75  65 2.75  49 2.75  68 2.76  48 2.76

  70  0.750  0.750  0.598-  69 2.73  58 2.74  66 2.75  67 2.75  53 2.76  54 2.76  49 2.76  50 2.76

 
  LATTYP: Found a simple tetragonal cell.
 ALAT       =    10.9820000000
 C/A-ratio  =     2.7317428519
  
  Lattice vectors:
  
 A1 = (  10.9820000000,   0.0000000000,   0.0000000000)
 A2 = (   0.0000000000,  10.9820000000,   0.0000000000)
 A3 = (   0.0000000000,   0.0000000000,  30.0000000000)


Analysis of symmetry for initial positions (statically):
=====================================================================
 Subroutine PRICEL returns:
 Original cell was already a primitive cell.
 

 Routine SETGRP: Setting up the symmetry group for a 
 simple tetragonal supercell.


 Subroutine GETGRP returns: Found  1 space group operations
 (whereof  1 operations were pure point group operations)
 out of a pool of 16 trial point group operations.


The static configuration has the point symmetry C_1 .


Analysis of symmetry for dynamics (positions and initial velocities):
=====================================================================
 Subroutine PRICEL returns:
 Original cell was already a primitive cell.
 

 Routine SETGRP: Setting up the symmetry group for a 
 simple tetragonal supercell.


 Subroutine GETGRP returns: Found  1 space group operations
 (whereof  1 operations were pure point group operations)
 out of a pool of 16 trial point group operations.


The dynamic configuration has the point symmetry C_1 .


Analysis of constrained symmetry for selective dynamics:
=====================================================================
 Subroutine PRICEL returns:
 Original cell was already a primitive cell.
 

 Routine SETGRP: Setting up the symmetry group for a 
 simple tetragonal supercell.


 Subroutine GETGRP returns: Found  1 space group operations
 (whereof  1 operations were pure point group operations)
 out of a pool of 16 trial point group operations.


The constrained configuration has the point symmetry C_1 .


Analysis of structural, dynamic, and magnetic symmetry:
=====================================================================
 Subroutine PRICEL returns:
 Original cell was already a primitive cell.
 

 Routine SETGRP: Setting up the symmetry group for a 
 simple tetragonal supercell.


 Subroutine GETGRP returns: Found  1 space group operations
 (whereof  1 operations were pure point group operations)
 out of a pool of 16 trial point group operations.


The magnetic configuration has the point symmetry C_1 .


 Subroutine INISYM returns: Found  1 space group operations
 (whereof  1 operations are pure point group operations),
 and found     1 'primitive' translations

 
 
 KPOINTS: K-Point Grid                            

Automatic generation of k-mesh.
Space group operators:
 irot       det(A)        alpha          n_x          n_y          n_z        tau_x        tau_y        tau_z
    1     1.000000     0.000001     1.000000     0.000000     0.000000     0.000000     0.000000     0.000000
 
 Subroutine IBZKPT returns following result:
 ===========================================
 
 Found      8 irreducible k-points:
 
 Following reciprocal coordinates:
            Coordinates               Weight
  0.125000  0.125000  0.000000      2.000000
  0.375000  0.125000  0.000000      2.000000
 -0.375000  0.125000  0.000000      2.000000
 -0.125000  0.125000  0.000000      2.000000
  0.125000  0.375000  0.000000      2.000000
  0.375000  0.375000  0.000000      2.000000
 -0.375000  0.375000  0.000000      2.000000
 -0.125000  0.375000  0.000000      2.000000
 
 Following cartesian coordinates:
            Coordinates               Weight
  0.011382  0.011382  0.000000      2.000000
  0.034147  0.011382  0.000000      2.000000
 -0.034147  0.011382  0.000000      2.000000
 -0.011382  0.011382  0.000000      2.000000
  0.011382  0.034147  0.000000      2.000000
  0.034147  0.034147  0.000000      2.000000
 -0.034147  0.034147  0.000000      2.000000
 -0.011382  0.034147  0.000000      2.000000
 


--------------------------------------------------------------------------------------------------------




 Dimension of arrays:
   k-points           NKPTS =      8   k-points in BZ     NKDIM =      8   number of bands    NBANDS=    576
   number of dos      NEDOS =   1200   number of ions     NIONS =     70
   non local maximal  LDIM  =      6   non local SUM 2l+1 LMDIM =     18
   total plane-waves  NPLWV = ******
   max r-space proj   IRMAX =   5807   max aug-charges    IRDMAX=  13820
   dimension x,y,z NGX =    72 NGY =   72 NGZ =  196
   dimension x,y,z NGXF=   144 NGYF=  144 NGZF=  392
   support grid    NGXF=   144 NGYF=  144 NGZF=  392
   ions per type =               3   1   2  64
   NGX,Y,Z   is equivalent  to a cutoff of  10.90, 10.90, 10.86 a.u.
   NGXF,Y,Z  is equivalent  to a cutoff of  21.80, 21.80, 21.72 a.u.

 SYSTEM =  Pd_100_surface                          
 POSCAR =  H N O Pd                                

 Startparameter for this run:
   NWRITE =      2    write-flag & timer
   PREC   = accura    normal or accurate (medium, high low for compatibility)
   ISTART =      0    job   : 0-new  1-cont  2-samecut
   ICHARG =      2    charge: 1-file 2-atom 10-const
   ISPIN  =      2    spin polarized calculation?
   LNONCOLLINEAR =      F non collinear calculations
   LSORBIT =      F    spin-orbit coupling
   INIWAV =      1    electr: 0-lowe 1-rand  2-diag
   LASPH  =      F    aspherical Exc in radial PAW
   METAGGA=      F    non-selfconsistent MetaGGA calc.

 Electronic Relaxation 1
   ENCUT  =  400.0 eV  29.40 Ry    5.42 a.u.  17.91 17.91 48.92*2*pi/ulx,y,z
   ENINI  =  400.0     initial cutoff
   ENAUG  =  627.1 eV  augmentation charge cutoff
   NELM   =    100;   NELMIN=  2; NELMDL=  0     # of ELM steps 
   EDIFF  = 0.1E-04   stopping-criterion for ELM
   LREAL  =      T    real-space projection
   NLSPLINE    = F    spline interpolate recip. space projectors
   LCOMPAT=      F    compatible to vasp.4.4
   GGA_COMPAT  = T    GGA compatible to vasp.4.4-vasp.4.6
   LMAXPAW     = -100 max onsite density
   LMAXMIX     =    2 max onsite mixed and CHGCAR
   VOSKOWN=      0    Vosko Wilk Nusair interpolation
   ROPT   =   -0.00025  -0.00025  -0.00025  -0.00025
 Ionic relaxation
   EDIFFG = -.2E-01   stopping-criterion for IOM
   NSW    =    100    number of steps for IOM
   NBLOCK =      1;   KBLOCK =    100    inner block; outer block 
   IBRION =      2    ionic relax: 0-MD 1-quasi-New 2-CG
   NFREE  =      1    steps in history (QN), initial steepest desc. (CG)
   ISIF   =      2    stress and relaxation
   IWAVPR =     11    prediction:  0-non 1-charg 2-wave 3-comb
   ISYM   =      2    0-nonsym 1-usesym 2-fastsym
   LCORR  =      T    Harris-Foulkes like correction to forces

   POTIM  = 0.5000    time-step for ionic-motion
   TEIN   =    0.0    initial temperature
   TEBEG  =    0.0;   TEEND  =   0.0 temperature during run
   SMASS  =  -3.00    Nose mass-parameter (am)
   estimated Nose-frequenzy (Omega)   =  0.10E-29 period in steps =****** mass=  -0.276E-26a.u.
   SCALEE = 1.0000    scale energy and forces
   NPACO  =    256;   APACO  = 16.0  distance and # of slots for P.C.
   PSTRESS=    0.0 pullay stress

  Mass of Ions in am
   POMASS =   1.00 14.00 16.00106.42
  Ionic Valenz
   ZVAL   =   1.00  5.00  6.00 10.00
  Atomic Wigner-Seitz radii
   RWIGS  =  -1.00 -1.00 -1.00 -1.00
  virtual crystal weights 
   VCA    =   1.00  1.00  1.00  1.00
   NELECT =     660.0000    total number of electrons
   NUPDOWN=      -1.0000    fix difference up-down

 DOS related values:
   EMIN   =  10.00;   EMAX   =-10.00  energy-range for DOS
   EFERMI =   0.00
   ISMEAR =     1;   SIGMA  =   0.20  broadening in eV -4-tet -1-fermi 0-gaus

 Electronic relaxation 2 (details)
   IALGO  =     68    algorithm
   LDIAG  =      T    sub-space diagonalisation (order eigenvalues)
   LSUBROT=      F    optimize rotation matrix (better conditioning)
   TURBO    =      0    0=normal 1=particle mesh
   IRESTART =      0    0=no restart 2=restart with 2 vectors
   NREBOOT  =      0    no. of reboots
   NMIN     =      0    reboot dimension
   EREF     =   0.00    reference energy to select bands
   IMIX   =      4    mixing-type and parameters
     AMIX     =   0.40;   BMIX     =  1.00
     AMIX_MAG =   1.60;   BMIX_MAG =  1.00
     AMIN     =   0.10
     WC   =   100.;   INIMIX=   1;  MIXPRE=   1;  MAXMIX= -45

 Intra band minimization:
   WEIMIN = 0.0010     energy-eigenvalue tresh-hold
   EBREAK =  0.43E-08  absolut break condition
   DEPER  =   0.30     relativ break condition  

   TIME   =   0.40     timestep for ELM

  volume/ion in A,a.u.               =      51.69       348.80
  Fermi-wavevector in a.u.,A,eV,Ry     =   0.928456  1.754528 11.728643  0.862031
  Thomas-Fermi vector in A             =   2.054635
 
 Write flags
   LWAVE        =      F    write WAVECAR
   LDOWNSAMPLE  =      F    k-point downsampling of WAVECAR
   LCHARG       =      F    write CHGCAR
   LVTOT        =      F    write LOCPOT, total local potential
   LVHAR        =      F    write LOCPOT, Hartree potential only
   LELF         =      F    write electronic localiz. function (ELF)
   LORBIT       =     11    0 simple, 1 ext, 2 COOP (PROOUT), +10 PAW based schemes


 Dipole corrections
   LMONO  =      F    monopole corrections only (constant potential shift)
   LDIPOL =      T    correct potential (dipole corrections)
   IDIPOL =      3    1-x, 2-y, 3-z, 4-all directions 
   EPSILON=  1.0000000 bulk dielectric constant

 Exchange correlation treatment:
   GGA     =    --    GGA type
   LEXCH   =     8    internal setting for exchange type
   VOSKOWN=      0    Vosko Wilk Nusair interpolation
   LHFCALC =     F    Hartree Fock is set to
   LHFONE  =     F    Hartree Fock one center treatment
   AEXX    =    0.0000 exact exchange contribution

 Linear response parameters
   LEPSILON=     F    determine dielectric tensor
   LRPA    =     F    only Hartree local field effects (RPA)
   LNABLA  =     F    use nabla operator in PAW spheres
   LVEL    =     F    velocity operator in full k-point grid
   LINTERFAST=   F  fast interpolation
   KINTER  =     0    interpolate to denser k-point grid
   CSHIFT  =0.1000    complex shift for real part using Kramers Kronig
   OMEGAMAX=  -1.0    maximum frequency
   DEG_THRESHOLD= 0.2000000E-02 threshold for treating states as degnerate
   RTIME   =   -0.100 relaxation time in fs
  (WPLASMAI=    0.000 imaginary part of plasma frequency in eV, 0.658/RTIME)
   DFIELD  = 0.0000000 0.0000000 0.0000000 field for delta impulse in time
 
 Orbital magnetization related:
   ORBITALMAG=     F  switch on orbital magnetization
   LCHIMAG   =     F  perturbation theory with respect to B field
   DQ        =  0.001000  dq finite difference perturbation B field
   LLRAUG    =     F  two centre corrections for induced B field



--------------------------------------------------------------------------------------------------------


 conjugate gradient relaxation of ions
   using selective dynamics as specified on POSCAR
 charge density and potential will be updated during run
 spin polarized calculation
 RMM-DIIS sequential band-by-band and
  variant of blocked Davidson during initial phase
 perform sub-space diagonalisation
    before iterative eigenvector-optimisation
 modified Broyden-mixing scheme, WC =      100.0
 initial mixing is a Kerker type mixing with AMIX =  0.4000 and BMIX =      1.0000
 Hartree-type preconditioning will be used
 using additional bands          246
 real space projection scheme for non local part
 use partial core corrections
 calculate Harris-corrections to forces 
   (improved forces if not selfconsistent)
 use gradient corrections 
 use of overlap-Matrix (Vanderbilt PP)
 Methfessel and Paxton  Order N= 1 SIGMA  =   0.20


--------------------------------------------------------------------------------------------------------


  energy-cutoff  :      400.00
  volume of cell :     3618.13
      direct lattice vectors                 reciprocal lattice vectors
    10.982000000  0.000000000  0.000000000     0.091058095  0.000000000  0.000000000
     0.000000000 10.982000000  0.000000000     0.000000000  0.091058095  0.000000000
     0.000000000  0.000000000 30.000000000     0.000000000  0.000000000  0.033333333

  length of vectors
    10.982000000 10.982000000 30.000000000     0.091058095  0.091058095  0.033333333


 
 k-points in units of 2pi/SCALE and weight: K-Point Grid                            
   0.01138226  0.01138226  0.00000000       0.125
   0.03414679  0.01138226  0.00000000       0.125
  -0.03414679  0.01138226  0.00000000       0.125
  -0.01138226  0.01138226  0.00000000       0.125
   0.01138226  0.03414679  0.00000000       0.125
   0.03414679  0.03414679  0.00000000       0.125
  -0.03414679  0.03414679  0.00000000       0.125
  -0.01138226  0.03414679  0.00000000       0.125
 
 k-points in reciprocal lattice and weights: K-Point Grid                            
   0.12500000  0.12500000  0.00000000       0.125
   0.37500000  0.12500000  0.00000000       0.125
  -0.37500000  0.12500000  0.00000000       0.125
  -0.12500000  0.12500000  0.00000000       0.125
   0.12500000  0.37500000  0.00000000       0.125
   0.37500000  0.37500000  0.00000000       0.125
  -0.37500000  0.37500000  0.00000000       0.125
  -0.12500000  0.37500000  0.00000000       0.125
 
 position of ions in fractional coordinates (direct lattice) 
   0.37788237  0.58252166  0.66968125
   0.37681910  0.22809634  0.67520663
   0.51147153  0.60768230  0.68356601
   0.37479709  0.18999771  0.64372812
   0.37423522  0.06612273  0.64898814
   0.45429679  0.54116634  0.67782328
   0.12499955  0.12499955  0.40293227
   0.12499955  0.37499864  0.40293227
   0.12499955  0.62499774  0.40293227
   0.12499955  0.87499683  0.40293227
   0.37499864  0.12499955  0.40293227
   0.37499864  0.37499864  0.40293227
   0.37499864  0.62499774  0.40293227
   0.37499864  0.87499683  0.40293227
   0.62499774  0.12499955  0.40293227
   0.62499774  0.37499864  0.40293227
   0.62499774  0.62499774  0.40293227
   0.62499774  0.87499683  0.40293227
   0.87499683  0.12499955  0.40293227
   0.87499683  0.37499864  0.40293227
   0.87499683  0.62499774  0.40293227
   0.87499683  0.87499683  0.40293227
   0.00019557  0.99964955  0.46783151
   0.00014880  0.25029954  0.46802825
   0.99990092  0.49989923  0.46791671
   0.00018597  0.75034748  0.46823850
   0.24997981  0.99977598  0.46805290
   0.25016658  0.24970548  0.46811853
   0.24974346  0.49945547  0.46815821
   0.24978192  0.74987528  0.46812600
   0.49995834  0.99985892  0.46793076
   0.49960888  0.25004878  0.46817851
   0.50023884  0.49954767  0.46799581
   0.50026651  0.74975532  0.46820704
   0.74990602  0.99975149  0.46786484
   0.74936719  0.25078708  0.46818592
   0.74976785  0.49998016  0.46806475
   0.74979684  0.75023350  0.46829308
   0.12393288  0.12452722  0.53274890
   0.12588431  0.37263049  0.53366164
   0.12456329  0.62489920  0.53281203
   0.12649785  0.87623576  0.53386180
   0.37472824  0.12404862  0.53275814
   0.37531445  0.37494405  0.53331957
   0.37551310  0.62386669  0.53292009
   0.37477229  0.87483470  0.53313832
   0.62600327  0.12503168  0.53252435
   0.62230439  0.37443830  0.53424416
   0.62485066  0.62383600  0.53314168
   0.62394088  0.87661085  0.53358507
   0.87499813  0.12502804  0.53256729
   0.87473097  0.37507951  0.53289921
   0.87499449  0.62496336  0.53282222
   0.87522858  0.87498419  0.53285549
   0.99788873  0.00013870  0.59835693
   0.99845821  0.24925350  0.59833225
   0.99942911  0.50013553  0.59831650
   0.99979035  0.74950495  0.59822460
   0.24456409  0.99646896  0.59995641
   0.24530177  0.25105937  0.60029761
   0.24813875  0.50057610  0.59736873
   0.25077136  0.74733736  0.59838472
   0.50542471  0.99720323  0.59999447
   0.50387666  0.24902740  0.60009491
   0.50134148  0.49801439  0.60073256
   0.50002032  0.74937098  0.59729131
   0.75203559  0.00035953  0.59820823
   0.75075062  0.24957671  0.59821053
   0.75188433  0.50066688  0.59814708
   0.75033083  0.74968570  0.59814058
 
 position of ions in cartesian coordinates  (Angst):
   4.14990418  6.39725288 20.09043754
   4.13822738  2.50495398 20.25619904
   5.61698038  6.67356699 20.50698034
   4.11602162  2.08655486 19.31184355
   4.10985115  0.72615979 19.46964426
   4.98908738  5.94308875 20.33469827
   1.37274503  1.37274503 12.08796804
   1.37274503  4.11823509 12.08796804
   1.37274503  6.86372514 12.08796804
   1.37274503  9.60921520 12.08796804
   4.11823509  1.37274503 12.08796804
   4.11823509  4.11823509 12.08796804
   4.11823509  6.86372514 12.08796804
   4.11823509  9.60921520 12.08796804
   6.86372514  1.37274503 12.08796804
   6.86372514  4.11823509 12.08796804
   6.86372514  6.86372514 12.08796804
   6.86372514  9.60921520 12.08796804
   9.60921520  1.37274503 12.08796804
   9.60921520  4.11823509 12.08796804
   9.60921520  6.86372514 12.08796804
   9.60921520  9.60921520 12.08796804
   0.00214772 10.97815136 14.03494539
   0.00163416  2.74878958 14.04084763
  10.98091190  5.48989340 14.03750117
   0.00204235  8.24031599 14.04715511
   2.74527823 10.97953985 14.04158704
   2.74732936  2.74226563 14.04355587
   2.74268264  5.48502001 14.04474620
   2.74310507  8.23513029 14.04377999
   5.49054249 10.98045068 14.03792276
   5.48670472  2.74603565 14.04535520
   5.49362289  5.48603252 14.03987419
   5.49392686  8.23381294 14.04621132
   8.23546791 10.97927086 14.03594516
   8.22955046  2.75414368 14.04557757
   8.23395050  5.49078211 14.04194260
   8.23426890  8.23906432 14.04879230
   1.36103085  1.36755793 15.98246695
   1.38246146  4.09222807 16.00984929
   1.36795402  6.86264305 15.98436087
   1.38919941  9.62282117 16.01585404
   4.11526558  1.36230199 15.98274405
   4.12170324  4.11763555 15.99958718
   4.12388484  6.85130402 15.98760272
   4.11574925  9.60743463 15.99414968
   6.87476792  1.37309791 15.97573059
   6.83414685  4.11208140 16.02732479
   6.86210992  6.85096696 15.99425054
   6.85211871  9.62694037 16.00755202
   9.60922942  1.37305797 15.97701872
   9.60629552  4.11912322 15.98697634
   9.60918951  6.86334766 15.98466670
   9.61176027  9.60907639 15.98566466
  10.95881400  0.00152315 17.95070804
  10.96506810  2.73730192 17.94996763
  10.97573050  5.49248844 17.94949507
  10.97969762  8.23106338 17.94673805
   2.68580289 10.94322213 17.99869236
   2.69390403  2.75713404 18.00892840
   2.72505973  5.49732668 17.92106193
   2.75397111  8.20725890 17.95154163
   5.55057417 10.95128583 17.99983410
   5.53357343  2.73481890 18.00284716
   5.50573209  5.46919402 18.02197681
   5.49122315  8.22959206 17.91873938
   8.25885489  0.00394832 17.94624685
   8.24474329  2.74085147 17.94631595
   8.25719366  5.49832370 17.94441254
   8.24013315  8.23304838 17.94421729
 


--------------------------------------------------------------------------------------------------------


 k-point  1 :   0.1250 0.1250 0.0000  plane waves:   65671
 k-point  2 :   0.3750 0.1250 0.0000  plane waves:   65719
 k-point  3 :  -0.3750 0.1250 0.0000  plane waves:   65719
 k-point  4 :  -0.1250 0.1250 0.0000  plane waves:   65671
 k-point  5 :   0.1250 0.3750 0.0000  plane waves:   65719
 k-point  6 :   0.3750 0.3750 0.0000  plane waves:   65776
 k-point  7 :  -0.3750 0.3750 0.0000  plane waves:   65776
 k-point  8 :  -0.1250 0.3750 0.0000  plane waves:   65719

 maximum and minimum number of plane-waves per node :     65776    65671

 maximum number of plane-waves:     65776
 maximum index in each direction: 
   IXMAX=   18   IYMAX=   17   IZMAX=   48
   IXMIN=  -18   IYMIN=  -18   IZMIN=  -48


 serial   3D FFT for wavefunctions
 parallel 3D FFT for charge:
    minimum data exchange during FFTs selected (reduces bandwidth)


 total amount of memory used by VASP MPI-rank0   228256. kBytes
=======================================================================

   base      :      30000. kBytes
   nonlr-proj:      51590. kBytes
   fftplans  :       5987. kBytes
   grid      :      86893. kBytes
   one-center:       2177. kBytes
   wavefun   :      51609. kBytes
 
     INWAV:  cpu time    0.0001: real time    0.0002
 Broyden mixing: mesh for mixing (old mesh)
   NGX = 35   NGY = 35   NGZ = 97
  (NGX  =144   NGY  =144   NGZ  =392)
  gives a total of 118825 points

 initial charge density was supplied:
 charge density of overlapping atoms calculated
 number of electron     660.0000000 magnetization      70.0000000
 keeping initial charge density in first step


--------------------------------------------------------------------------------------------------------


 Maximum index for non-local projection operator         5571
 Maximum index for augmentation-charges          680 (set IRDMAX)


--------------------------------------------------------------------------------------------------------


 First call to EWALD:  gamma=   0.115
 Maximum number of real-space cells 4x 4x 2
 Maximum number of reciprocal cells 2x 2x 5

    FEWALD:  cpu time    0.2063: real time    0.2162


--------------------------------------- Iteration      1(   1)  ---------------------------------------


    POTLOK:  cpu time    0.4997: real time    0.5279
    SETDIJ:  cpu time    0.1468: real time    0.0816
     EDDAV:  cpu time  335.3517: real time  328.8866
       DOS:  cpu time    0.2037: real time    0.1995
    --------------------------------------------
      LOOP:  cpu time  336.2232: real time  329.7166

 eigenvalue-minimisations  : 18432
 total energy-change (2. order) : 0.3318034E+04  (-0.2473402E+05)
 number of electron     660.0000000 magnetization      70.0000000
 augmentation part      660.0000000 magnetization      70.0000000

 DIPCOR: dipole corrections for dipol
 direction  3 min pos     1,
 dipolmoment           0.000000      0.000000     -0.000144 electrons x Angstroem
 Tr[quadrupol]    -13778.168893

 energy correction for charged system         0.000000 eV
 dipol+quadrupol energy correction           -0.000000 eV
 added-field ion interaction          0.000794 eV  (added to PSCEN)


 Free energy of the ion-electron system (eV)
  ---------------------------------------------------
  alpha Z        PSCENC =       774.60474153
  Ewald energy   TEWEN  =    386453.56246192
  -Hartree energ DENC   =   -439828.68919664
  -exchange      EXHF   =         0.00000000
  -V(xc)+E(xc)   XCENC  =     -1794.72072419
  PAW double counting   =     52528.45871130   -48551.45505577
  entropy T*S    EENTRO =         0.00509766
  eigenvalues    EBANDS =       746.22157208
  atomic energy  EATOM  =     52990.04641755
  Solvation  Ediel_sol  =         0.00000000
  ---------------------------------------------------
  free energy    TOTEN  =      3318.03402545 eV

  energy without entropy =     3318.02892778  energy(sigma->0) =     3318.03232623


--------------------------------------------------------------------------------------------------------




--------------------------------------- Iteration      1(   2)  ---------------------------------------


     EDDAV:  cpu time  333.3562: real time  328.0820
       DOS:  cpu time    0.4223: real time    0.6510
    --------------------------------------------
      LOOP:  cpu time  333.7822: real time  328.7369

 eigenvalue-minimisations  : 20544
 total energy-change (2. order) :-0.3558526E+04  (-0.3384408E+04)
 number of electron     660.0000000 magnetization      70.0000000
 augmentation part      660.0000000 magnetization      70.0000000

 DIPCOR: dipole corrections for dipol
 direction  3 min pos     1,
 dipolmoment           0.000000      0.000000     -0.000144 electrons x Angstroem
 Tr[quadrupol]    -13778.168893

 energy correction for charged system         0.000000 eV
 dipol+quadrupol energy correction           -0.000000 eV
 added-field ion interaction          0.000794 eV  (added to PSCEN)


 Free energy of the ion-electron system (eV)
  ---------------------------------------------------
  alpha Z        PSCENC =       774.60474153
  Ewald energy   TEWEN  =    386453.56246192
  -Hartree energ DENC   =   -439828.68919664
  -exchange      EXHF   =         0.00000000
  -V(xc)+E(xc)   XCENC  =     -1794.72072419
  PAW double counting   =     52528.45871130   -48551.45505577
  entropy T*S    EENTRO =         0.09445762
  eigenvalues    EBANDS =     -2812.39427460
  atomic energy  EATOM  =     52990.04641755
  Solvation  Ediel_sol  =         0.00000000
  ---------------------------------------------------
  free energy    TOTEN  =      -240.49246127 eV

  energy without entropy =     -240.58691889  energy(sigma->0) =     -240.52394715


--------------------------------------------------------------------------------------------------------




--------------------------------------- Iteration      1(   3)  ---------------------------------------


     EDDAV:  cpu time  452.6288: real time  423.1521
       DOS:  cpu time    6.4157: real time   10.9629
    --------------------------------------------
      LOOP:  cpu time  459.0658: real time  434.2126

 eigenvalue-minimisations  : 24576
 total energy-change (2. order) :-0.1109254E+03  (-0.1095480E+03)
 number of electron     660.0000000 magnetization      70.0000000
 augmentation part      660.0000000 magnetization      70.0000000

 DIPCOR: dipole corrections for dipol
 direction  3 min pos     1,
 dipolmoment           0.000000      0.000000     -0.000144 electrons x Angstroem
 Tr[quadrupol]    -13778.168893

 energy correction for charged system         0.000000 eV
 dipol+quadrupol energy correction           -0.000000 eV
 added-field ion interaction          0.000794 eV  (added to PSCEN)


 Free energy of the ion-electron system (eV)
  ---------------------------------------------------
  alpha Z        PSCENC =       774.60474153
  Ewald energy   TEWEN  =    386453.56246192
  -Hartree energ DENC   =   -439828.68919664
  -exchange      EXHF   =         0.00000000
  -V(xc)+E(xc)   XCENC  =     -1794.72072419
  PAW double counting   =     52528.45871130   -48551.45505577
  entropy T*S    EENTRO =         0.14367749
  eigenvalues    EBANDS =     -2923.36893438
  atomic energy  EATOM  =     52990.04641755
  Solvation  Ediel_sol  =         0.00000000
  ---------------------------------------------------
  free energy    TOTEN  =      -351.41790119 eV

  energy without entropy =     -351.56157867  energy(sigma->0) =     -351.46579368


--------------------------------------------------------------------------------------------------------




--------------------------------------- Iteration      1(   4)  ---------------------------------------


     EDDAV:  cpu time  399.5482: real time  398.5288
       DOS:  cpu time    0.0942: real time    0.0899
    --------------------------------------------
      LOOP:  cpu time  399.6063: real time  398.5064

 eigenvalue-minimisations  : 21312
 total energy-change (2. order) :-0.1638844E+01  (-0.1638447E+01)
 number of electron     660.0000000 magnetization      70.0000000
 augmentation part      660.0000000 magnetization      70.0000000

 DIPCOR: dipole corrections for dipol
 direction  3 min pos     1,
 dipolmoment           0.000000      0.000000     -0.000144 electrons x Angstroem
 Tr[quadrupol]    -13778.168893

 energy correction for charged system         0.000000 eV
 dipol+quadrupol energy correction           -0.000000 eV
 added-field ion interaction          0.000794 eV  (added to PSCEN)


 Free energy of the ion-electron system (eV)
  ---------------------------------------------------
  alpha Z        PSCENC =       774.60474153
  Ewald energy   TEWEN  =    386453.56246192
  -Hartree energ DENC   =   -439828.68919664
  -exchange      EXHF   =         0.00000000
  -V(xc)+E(xc)   XCENC  =     -1794.72072419
  PAW double counting   =     52528.45871130   -48551.45505577
  entropy T*S    EENTRO =         0.14489369
  eigenvalues    EBANDS =     -2925.00899451
  atomic energy  EATOM  =     52990.04641755
  Solvation  Ediel_sol  =         0.00000000
  ---------------------------------------------------
  free energy    TOTEN  =      -353.05674512 eV

  energy without entropy =     -353.20163881  energy(sigma->0) =     -353.10504302


--------------------------------------------------------------------------------------------------------




--------------------------------------- Iteration      1(   5)  ---------------------------------------


     EDDAV:  cpu time  585.0689: real time  561.4795
       DOS:  cpu time    0.4004: real time    0.4124
    CHARGE:  cpu time    1.6223: real time    1.4346
    MIXING:  cpu time    0.1409: real time    0.1700
    --------------------------------------------
      LOOP:  cpu time  587.2297: real time  563.5150

 eigenvalue-minimisations  : 28224
 total energy-change (2. order) :-0.7618756E-01  (-0.7618707E-01)
 number of electron     659.9999511 magnetization      67.4388502
 augmentation part      261.0780066 magnetization      53.4696061

 DIPCOR: dipole corrections for dipol
 direction  3 min pos     1,
 dipolmoment           0.000000      0.000000     -0.000144 electrons x Angstroem
 Tr[quadrupol]    -13778.168893

 energy correction for charged system         0.000000 eV
 dipol+quadrupol energy correction           -0.000000 eV
 added-field ion interaction          0.000794 eV  (added to PSCEN)


 Broyden mixing:
  rms(total) = 0.59973E+01    rms(broyden)= 0.59963E+01
  rms(prec ) = 0.60548E+01
  weight for this iteration     100.00

 Free energy of the ion-electron system (eV)
  ---------------------------------------------------
  alpha Z        PSCENC =       774.60474153
  Ewald energy   TEWEN  =    386453.56246192
  -Hartree energ DENC   =   -439828.68919664
  -exchange      EXHF   =         0.00000000
  -V(xc)+E(xc)   XCENC  =     -1794.72072419
  PAW double counting   =     52528.45871130   -48551.45505577
  entropy T*S    EENTRO =         0.14493430
  eigenvalues    EBANDS =     -2925.08522268
  atomic energy  EATOM  =     52990.04641755
  Solvation  Ediel_sol  =         0.00000000
  ---------------------------------------------------
  free energy    TOTEN  =      -353.13293268 eV

  energy without entropy =     -353.27786698  energy(sigma->0) =     -353.18124411


--------------------------------------------------------------------------------------------------------




--------------------------------------- Iteration      1(   6)  ---------------------------------------


    POTLOK:  cpu time    0.2727: real time    0.6177
    SETDIJ:  cpu time    0.2822: real time    0.1641
    EDDIAG:  cpu time   33.7418: real time   28.9374
  RMM-DIIS:  cpu time   52.7594: real time   49.5137
    ORTHCH:  cpu time    6.2236: real time    4.5179
       DOS:  cpu time    0.3986: real time    0.2445
    CHARGE:  cpu time    2.6070: real time    2.1550
    MIXING:  cpu time    0.3063: real time    0.3443
    --------------------------------------------
      LOOP:  cpu time   96.5914: real time   86.4739

 eigenvalue-minimisations  : 18446
 total energy-change (2. order) : 0.3443512E+02  (-0.6987462E+01)
 number of electron     659.9999500 magnetization      64.4346578
 augmentation part      271.7806538 magnetization      48.9016711

 DIPCOR: dipole corrections for dipol
 direction  3 min pos     1,
 dipolmoment           0.000000      0.000000     -0.121176 electrons x Angstroem
 Tr[quadrupol]    -13784.018572

 energy correction for charged system         0.000000 eV
 dipol+quadrupol energy correction           -0.000367 eV
 added-field ion interaction          0.666921 eV  (added to PSCEN)


 Broyden mixing:
  rms(total) = 0.33597E+01    rms(broyden)= 0.33590E+01
  rms(prec ) = 0.34350E+01
  weight for this iteration     100.00

 eigenvalues of (default mixing * dielectric matrix)
  average eigenvalue GAMMA=   0.9889
  0.9889

 Free energy of the ion-electron system (eV)
  ---------------------------------------------------
  alpha Z        PSCENC =       775.27050153
  Ewald energy   TEWEN  =    386453.56246192
  -Hartree energ DENC   =   -439671.47481698
  -exchange      EXHF   =         0.00000000
  -V(xc)+E(xc)   XCENC  =     -1789.67896528
  PAW double counting   =     56408.75509028   -52508.90610407
  entropy T*S    EENTRO =         0.06951571
  eigenvalues    EBANDS =     -2976.34191642
  atomic energy  EATOM  =     52990.04641755
  Solvation  Ediel_sol  =         0.00000000
  ---------------------------------------------------
  free energy    TOTEN  =      -318.69781576 eV

  energy without entropy =     -318.76733147  energy(sigma->0) =     -318.72098767


--------------------------------------------------------------------------------------------------------




--------------------------------------- Iteration      1(   7)  ---------------------------------------


    POTLOK:  cpu time    1.5948: real time    1.7136
    SETDIJ:  cpu time   19.1222: real time   19.1571
    EDDIAG:  cpu time   42.8422: real time   42.9444
  RMM-DIIS:  cpu time   54.4028: real time   48.4711
    ORTHCH:  cpu time    7.1205: real time    5.5811
       DOS:  cpu time    1.0583: real time    2.6153
    CHARGE:  cpu time   23.1019: real time   22.7900
    MIXING:  cpu time    0.2261: real time    0.3259
    --------------------------------------------
      LOOP:  cpu time  149.4691: real time  143.6156

 eigenvalue-minimisations  : 18457
 total energy-change (2. order) :-0.3107513E+02  (-0.2605287E+01)
 number of electron     659.9999461 magnetization      63.1596833
 augmentation part      267.9034057 magnetization      49.1530400

 DIPCOR: dipole corrections for dipol
 direction  3 min pos     1,
 dipolmoment           0.000000      0.000000      1.199117 electrons x Angstroem
 Tr[quadrupol]    -13794.046814

 energy correction for charged system         0.000000 eV
 dipol+quadrupol energy correction           -0.035956 eV
 added-field ion interaction         -6.599623 eV  (added to PSCEN)


 Broyden mixing:
  rms(total) = 0.50776E+01    rms(broyden)= 0.50771E+01
  rms(prec ) = 0.64160E+01
  weight for this iteration     100.00

 eigenvalues of (default mixing * dielectric matrix)
  average eigenvalue GAMMA=   0.7590
  1.1860  0.3320

 Free energy of the ion-electron system (eV)
  ---------------------------------------------------
  alpha Z        PSCENC =       767.96836857
  Ewald energy   TEWEN  =    386453.56246192
  -Hartree energ DENC   =   -440069.67287935
  -exchange      EXHF   =         0.00000000
  -V(xc)+E(xc)   XCENC  =     -1787.91777286
  PAW double counting   =     59280.77768457   -55411.40391962
  entropy T*S    EENTRO =        -0.06333029
  eigenvalues    EBANDS =     -2573.06997241
  atomic energy  EATOM  =     52990.04641755
  Solvation  Ediel_sol  =         0.00000000
  ---------------------------------------------------
  free energy    TOTEN  =      -349.77294191 eV

  energy without entropy =     -349.70961162  energy(sigma->0) =     -349.75183181


--------------------------------------------------------------------------------------------------------




--------------------------------------- Iteration      1(   8)  ---------------------------------------


    POTLOK:  cpu time    0.6030: real time    1.2804
    SETDIJ:  cpu time    0.5702: real time    0.4750
    EDDIAG:  cpu time   61.7106: real time   56.7599
  RMM-DIIS:  cpu time   35.3828: real time   26.5633
    ORTHCH:  cpu time    3.9490: real time    2.4982
       DOS:  cpu time    0.2155: real time    0.2077
    CHARGE:  cpu time   18.5107: real time   20.7866
    MIXING:  cpu time    3.9315: real time    4.2237
    --------------------------------------------
      LOOP:  cpu time  124.8732: real time  112.8215

 eigenvalue-minimisations  : 18434
 total energy-change (2. order) : 0.9605503E+01  (-0.2327069E+01)
 number of electron     659.9999524 magnetization      60.3852187
 augmentation part      268.8234169 magnetization      44.1341996

 DIPCOR: dipole corrections for dipol
 direction  3 min pos     1,
 dipolmoment           0.000000      0.000000     -1.894356 electrons x Angstroem
 Tr[quadrupol]    -13796.010863

 energy correction for charged system         0.000000 eV
 dipol+quadrupol energy correction           -0.089737 eV
 added-field ion interaction         10.426035 eV  (added to PSCEN)


 Broyden mixing:
  rms(total) = 0.42217E+01    rms(broyden)= 0.42211E+01
  rms(prec ) = 0.54934E+01
  weight for this iteration     100.00

 eigenvalues of (default mixing * dielectric matrix)
  average eigenvalue GAMMA=   0.8600
  1.7700  0.6688  0.1413

 Free energy of the ion-electron system (eV)
  ---------------------------------------------------
  alpha Z        PSCENC =       784.94024590
  Ewald energy   TEWEN  =    386453.56246192
  -Hartree energ DENC   =   -440089.97464179
  -exchange      EXHF   =         0.00000000
  -V(xc)+E(xc)   XCENC  =     -1786.04977215
  PAW double counting   =     60070.57092292   -56213.45117356
  entropy T*S    EENTRO =        -0.11417955
  eigenvalues    EBANDS =     -2549.69772017
  atomic energy  EATOM  =     52990.04641755
  Solvation  Ediel_sol  =         0.00000000
  ---------------------------------------------------
  free energy    TOTEN  =      -340.16743892 eV

  energy without entropy =     -340.05325937  energy(sigma->0) =     -340.12937907


--------------------------------------------------------------------------------------------------------




--------------------------------------- Iteration      1(   9)  ---------------------------------------


    POTLOK:  cpu time    0.7929: real time    1.3114
    SETDIJ:  cpu time    0.5191: real time    0.4008
    EDDIAG:  cpu time   55.6871: real time   57.2558
  RMM-DIIS:  cpu time   32.8298: real time   27.4737
    ORTHCH:  cpu time    3.7822: real time    2.0468
       DOS:  cpu time   19.1299: real time   24.8052
    CHARGE:  cpu time    2.0048: real time    1.8553
    MIXING:  cpu time    0.5668: real time    1.0642
    --------------------------------------------
      LOOP:  cpu time  115.3124: real time  116.1879

 eigenvalue-minimisations  : 18459
 total energy-change (2. order) : 0.2735658E+02  (-0.1420988E+01)
 number of electron     659.9999483 magnetization      59.4277266
 augmentation part      272.3133718 magnetization      45.1555810

 DIPCOR: dipole corrections for dipol
 direction  3 min pos     1,
 dipolmoment           0.000000      0.000000     -0.117126 electrons x Angstroem
 Tr[quadrupol]    -13796.977301

 energy correction for charged system         0.000000 eV
 dipol+quadrupol energy correction           -0.000343 eV
 added-field ion interaction          0.644632 eV  (added to PSCEN)


 Broyden mixing:
  rms(total) = 0.41950E+01    rms(broyden)= 0.41944E+01
  rms(prec ) = 0.49124E+01
  weight for this iteration     100.00

 eigenvalues of (default mixing * dielectric matrix)
  average eigenvalue GAMMA=   0.7458
  1.9485  0.7062  0.2102  0.1181

 Free energy of the ion-electron system (eV)
  ---------------------------------------------------
  alpha Z        PSCENC =       775.24823699
  Ewald energy   TEWEN  =    386453.56246192
  -Hartree energ DENC   =   -440094.79356631
  -exchange      EXHF   =         0.00000000
  -V(xc)+E(xc)   XCENC  =     -1780.46113160
  PAW double counting   =     61474.58599653   -57641.42820293
  entropy T*S    EENTRO =        -0.01036473
  eigenvalues    EBANDS =     -2489.56070649
  atomic energy  EATOM  =     52990.04641755
  Solvation  Ediel_sol  =         0.00000000
  ---------------------------------------------------
  free energy    TOTEN  =      -312.81085906 eV

  energy without entropy =     -312.80049434  energy(sigma->0) =     -312.80740415


--------------------------------------------------------------------------------------------------------




--------------------------------------- Iteration      1(  10)  ---------------------------------------


    POTLOK:  cpu time   23.5305: real time   24.8305
    SETDIJ:  cpu time    0.4301: real time    0.3500
    EDDIAG:  cpu time   76.7209: real time   72.9894
  RMM-DIIS:  cpu time   29.3919: real time   21.4856
    ORTHCH:  cpu time    7.6084: real time    6.2803
       DOS:  cpu time    0.1761: real time    0.1675
    CHARGE:  cpu time    1.7361: real time    1.5492
    MIXING:  cpu time    0.4729: real time    1.1520
    --------------------------------------------
      LOOP:  cpu time  140.0672: real time  129.9614

 eigenvalue-minimisations  : 18466
 total energy-change (2. order) : 0.1551215E+02  (-0.5238585E+00)
 number of electron     659.9999499 magnetization      57.9741848
 augmentation part      273.0615821 magnetization      41.3401252

 DIPCOR: dipole corrections for dipol
 direction  3 min pos     1,
 dipolmoment           0.000000      0.000000     -0.419283 electrons x Angstroem
 Tr[quadrupol]    -13796.983490

 energy correction for charged system         0.000000 eV
 dipol+quadrupol energy correction           -0.004396 eV
 added-field ion interaction          2.307623 eV  (added to PSCEN)


 Broyden mixing:
  rms(total) = 0.18697E+01    rms(broyden)= 0.18692E+01
  rms(prec ) = 0.19802E+01
  weight for this iteration     100.00

 eigenvalues of (default mixing * dielectric matrix)
  average eigenvalue GAMMA=   0.6843
  2.0495  0.7216  0.3645  0.1676  0.1184

 Free energy of the ion-electron system (eV)
  ---------------------------------------------------
  alpha Z        PSCENC =       776.90717515
  Ewald energy   TEWEN  =    386453.56246192
  -Hartree energ DENC   =   -440093.32417707
  -exchange      EXHF   =         0.00000000
  -V(xc)+E(xc)   XCENC  =     -1778.48693103
  PAW double counting   =     61797.61932620   -57968.50003964
  entropy T*S    EENTRO =        -0.10795026
  eigenvalues    EBANDS =     -2475.01499568
  atomic energy  EATOM  =     52990.04641755
  Solvation  Ediel_sol  =         0.00000000
  ---------------------------------------------------
  free energy    TOTEN  =      -297.29871285 eV

  energy without entropy =     -297.19076259  energy(sigma->0) =     -297.26272943


--------------------------------------------------------------------------------------------------------




--------------------------------------- Iteration      1(  11)  ---------------------------------------


    POTLOK:  cpu time   17.9152: real time   23.9742
    SETDIJ:  cpu time    0.4448: real time    0.3696
    EDDIAG:  cpu time   48.2701: real time   56.4959
  RMM-DIIS:  cpu time   35.9188: real time   27.3008
    ORTHCH:  cpu time    4.3756: real time    2.5137
       DOS:  cpu time    0.6784: real time    0.5355
    CHARGE:  cpu time   23.0276: real time   24.1849
    MIXING:  cpu time    0.3634: real time    0.5690
    --------------------------------------------
      LOOP:  cpu time  130.9935: real time  134.8018

 eigenvalue-minimisations  : 18463
 total energy-change (2. order) : 0.3221544E+00  (-0.4612514E+00)
 number of electron     659.9999495 magnetization      56.3277672
 augmentation part      272.6623665 magnetization      40.0666814

 DIPCOR: dipole corrections for dipol
 direction  3 min pos     1,
 dipolmoment           0.000000      0.000000     -0.293846 electrons x Angstroem
 Tr[quadrupol]    -13797.750381

 energy correction for charged system         0.000000 eV
 dipol+quadrupol energy correction           -0.002159 eV
 added-field ion interaction          1.617249 eV  (added to PSCEN)


 Broyden mixing:
  rms(total) = 0.17183E+01    rms(broyden)= 0.17181E+01
  rms(prec ) = 0.18373E+01
  weight for this iteration     100.00

 eigenvalues of (default mixing * dielectric matrix)
  average eigenvalue GAMMA=   0.6444
  2.0980  0.7468  0.4371  0.2950  0.1742  0.1153

 Free energy of the ion-electron system (eV)
  ---------------------------------------------------
  alpha Z        PSCENC =       776.21903786
  Ewald energy   TEWEN  =    386453.56246192
  -Hartree energ DENC   =   -440137.65616986
  -exchange      EXHF   =         0.00000000
  -V(xc)+E(xc)   XCENC  =     -1778.24028235
  PAW double counting   =     62107.19355149   -58278.95841224
  entropy T*S    EENTRO =        -0.06196303
  eigenvalues    EBANDS =     -2429.08119979
  atomic energy  EATOM  =     52990.04641755
  Solvation  Ediel_sol  =         0.00000000
  ---------------------------------------------------
  free energy    TOTEN  =      -296.97655846 eV

  energy without entropy =     -296.91459542  energy(sigma->0) =     -296.95590411


--------------------------------------------------------------------------------------------------------




--------------------------------------- Iteration      1(  12)  ---------------------------------------


    POTLOK:  cpu time    0.7288: real time    0.9879
    SETDIJ:  cpu time    0.4786: real time    0.3561
    EDDIAG:  cpu time   91.1572: real time   95.5748
  RMM-DIIS:  cpu time   34.0220: real time   25.1684
    ORTHCH:  cpu time    3.8291: real time    2.1429
       DOS:  cpu time    0.0987: real time    0.0947
    CHARGE:  cpu time   18.5342: real time   24.9925
    MIXING:  cpu time    1.9570: real time    2.0833
    --------------------------------------------
      LOOP:  cpu time  150.8053: real time  151.3813

 eigenvalue-minimisations  : 18471
 total energy-change (2. order) :-0.2163302E-01  (-0.1721024E+00)
 number of electron     659.9999498 magnetization      55.4149180
 augmentation part      271.7002135 magnetization      38.8991412

 DIPCOR: dipole corrections for dipol
 direction  3 min pos     1,
 dipolmoment           0.000000      0.000000     -0.304397 electrons x Angstroem
 Tr[quadrupol]    -13800.065907

 energy correction for charged system         0.000000 eV
 dipol+quadrupol energy correction           -0.002317 eV
 added-field ion interaction          1.675321 eV  (added to PSCEN)


 Broyden mixing:
  rms(total) = 0.12163E+01    rms(broyden)= 0.12161E+01
  rms(prec ) = 0.12911E+01
  weight for this iteration     100.00

 eigenvalues of (default mixing * dielectric matrix)
  average eigenvalue GAMMA=   0.6122
  2.0741  0.6930  0.5044  0.5044  0.2248  0.1686  0.1164

 Free energy of the ion-electron system (eV)
  ---------------------------------------------------
  alpha Z        PSCENC =       776.27695223
  Ewald energy   TEWEN  =    386453.56246192
  -Hartree energ DENC   =   -440249.76447296
  -exchange      EXHF   =         0.00000000
  -V(xc)+E(xc)   XCENC  =     -1778.28433273
  PAW double counting   =     62356.63482822   -58527.96214184
  entropy T*S    EENTRO =        -0.03224274
  eigenvalues    EBANDS =     -2317.47566113
  atomic energy  EATOM  =     52990.04641755
  Solvation  Ediel_sol  =         0.00000000
  ---------------------------------------------------
  free energy    TOTEN  =      -296.99819148 eV

  energy without entropy =     -296.96594874  energy(sigma->0) =     -296.98744390


--------------------------------------------------------------------------------------------------------




--------------------------------------- Iteration      1(  13)  ---------------------------------------


    POTLOK:  cpu time    0.5158: real time    0.9498
    SETDIJ:  cpu time    0.2324: real time    0.1735
    EDDIAG:  cpu time   54.5169: real time   56.7606
  RMM-DIIS:  cpu time   31.1451: real time   25.3070
    ORTHCH:  cpu time    5.2639: real time    3.5134
       DOS:  cpu time    0.1586: real time    0.1259
    CHARGE:  cpu time    1.5149: real time    1.3529
    MIXING:  cpu time    0.0115: real time    0.0072
    --------------------------------------------
      LOOP:  cpu time   93.4263: real time   88.2426

 eigenvalue-minimisations  : 18480
 total energy-change (2. order) :-0.1888415E+01  (-0.9189684E-01)
 number of electron     659.9999498 magnetization      53.5519460
 augmentation part      271.4991455 magnetization      37.2189121

 DIPCOR: dipole corrections for dipol
 direction  3 min pos     1,
 dipolmoment           0.000000      0.000000     -0.290703 electrons x Angstroem
 Tr[quadrupol]    -13800.704152

 energy correction for charged system         0.000000 eV
 dipol+quadrupol energy correction           -0.002113 eV
 added-field ion interaction          1.599952 eV  (added to PSCEN)


 Broyden mixing:
  rms(total) = 0.11295E+01    rms(broyden)= 0.11294E+01
  rms(prec ) = 0.12174E+01
  weight for this iteration     100.00

 eigenvalues of (default mixing * dielectric matrix)
  average eigenvalue GAMMA=   0.6381
  2.0015  0.8856  0.8856  0.5878  0.2704  0.1160  0.1790  0.1790

 Free energy of the ion-electron system (eV)
  ---------------------------------------------------
  alpha Z        PSCENC =       776.20178629
  Ewald energy   TEWEN  =    386453.56246192
  -Hartree energ DENC   =   -440280.50462571
  -exchange      EXHF   =         0.00000000
  -V(xc)+E(xc)   XCENC  =     -1779.38283828
  PAW double counting   =     62372.19480267   -58542.12532298
  entropy T*S    EENTRO =        -0.01459933
  eigenvalues    EBANDS =     -2288.86468846
  atomic energy  EATOM  =     52990.04641755
  Solvation  Ediel_sol  =         0.00000000
  ---------------------------------------------------
  free energy    TOTEN  =      -298.88660634 eV

  energy without entropy =     -298.87200700  energy(sigma->0) =     -298.88173989


--------------------------------------------------------------------------------------------------------




--------------------------------------- Iteration      1(  14)  ---------------------------------------


    POTLOK:  cpu time   24.0515: real time   24.5333
    SETDIJ:  cpu time    2.0075: real time    1.9449
    EDDIAG:  cpu time   54.0139: real time   47.2516
  RMM-DIIS:  cpu time   28.8141: real time   21.0634
    ORTHCH:  cpu time    4.5721: real time    2.6844
       DOS:  cpu time    2.4078: real time    4.6589
    CHARGE:  cpu time   17.4400: real time   19.1637
    MIXING:  cpu time    0.1821: real time    0.2766
    --------------------------------------------
      LOOP:  cpu time  133.4218: real time  121.5382

 eigenvalue-minimisations  : 18466
 total energy-change (2. order) :-0.4362103E+01  (-0.1155802E+00)
 number of electron     659.9999498 magnetization      51.7373172
 augmentation part      271.3514122 magnetization      36.1701089

 DIPCOR: dipole corrections for dipol
 direction  3 min pos     1,
 dipolmoment           0.000000      0.000000     -0.271406 electrons x Angstroem
 Tr[quadrupol]    -13801.720392

 energy correction for charged system         0.000000 eV
 dipol+quadrupol energy correction           -0.001842 eV
 added-field ion interaction          1.493749 eV  (added to PSCEN)


 Broyden mixing:
  rms(total) = 0.13007E+01    rms(broyden)= 0.13006E+01
  rms(prec ) = 0.14134E+01
[...]
   -.701E+01 -.346E+01 0.975E+03   0.697E+01 0.347E+01 -.975E+03   0.251E-01 -.270E-01 -.668E-01   0.138E-01 0.156E-01 0.182E+00
   -.436E+01 -.131E+01 0.971E+03   0.440E+01 0.138E+01 -.972E+03   -.601E-01 -.717E-01 0.395E-02   0.133E-01 0.808E-02 0.194E+00
   -.396E+01 0.163E+01 0.967E+03   0.396E+01 -.161E+01 -.967E+03   -.186E-01 -.523E-02 -.697E-01   0.145E-01 -.129E-01 0.186E+00
   0.250E+02 0.314E+01 -.765E+03   -.250E+02 -.311E+01 0.764E+03   0.348E-01 -.375E-01 0.190E+00   -.235E-01 0.244E-02 0.182E+00
   0.305E+02 -.159E+02 -.789E+03   -.303E+02 0.154E+02 0.789E+03   -.243E+00 0.418E+00 -.315E+00   -.203E-01 0.197E-01 0.177E+00
   0.213E+02 -.478E+01 -.782E+03   -.213E+02 0.479E+01 0.782E+03   0.829E-02 0.112E-02 0.914E-01   -.181E-01 0.874E-04 0.179E+00
   0.273E+02 0.179E+02 -.802E+03   -.270E+02 -.175E+02 0.802E+03   -.289E+00 -.368E+00 -.353E+00   -.169E-01 -.159E-01 0.191E+00
   0.336E+01 0.497E+01 -.721E+03   -.337E+01 -.505E+01 0.720E+03   0.137E-01 0.826E-01 0.112E+01   -.644E-02 -.590E-03 0.187E+00
   0.527E+01 -.112E+02 -.754E+03   -.520E+01 0.114E+02 0.754E+03   -.684E-01 -.217E+00 0.355E+00   -.649E-02 0.128E-01 0.181E+00
   0.460E+01 -.592E+01 -.758E+03   -.458E+01 0.591E+01 0.758E+03   -.118E-01 0.148E-01 0.865E-01   -.678E-02 -.204E-02 0.181E+00
   0.426E+01 0.130E+02 -.763E+03   -.427E+01 -.131E+02 0.762E+03   0.173E-01 0.787E-01 0.234E+00   -.705E-02 -.234E-01 0.193E+00
   -.262E+02 0.401E+01 -.755E+03   0.262E+02 -.396E+01 0.755E+03   -.434E-01 -.528E-01 0.183E+00   0.230E-01 0.510E-02 0.188E+00
   -.338E+02 -.117E+02 -.794E+03   0.334E+02 0.115E+02 0.794E+03   0.409E+00 0.204E+00 -.490E+00   0.229E-01 0.118E-01 0.187E+00
   -.224E+02 -.566E+01 -.781E+03   0.223E+02 0.558E+01 0.781E+03   0.509E-01 0.849E-01 0.708E-01   0.240E-01 0.388E-02 0.183E+00
   -.285E+02 0.144E+02 -.788E+03   0.283E+02 -.141E+02 0.788E+03   0.263E+00 -.336E+00 -.327E+00   0.203E-01 -.182E-01 0.186E+00
   -.202E+01 0.155E+01 -.783E+03   0.202E+01 -.153E+01 0.783E+03   0.597E-04 -.263E-01 0.104E-01   0.206E-02 0.582E-02 0.181E+00
   -.344E+01 -.640E+01 -.794E+03   0.343E+01 0.638E+01 0.794E+03   0.454E-02 0.737E-02 0.453E-01   -.714E-03 0.119E-01 0.181E+00
   -.434E+01 -.348E+01 -.796E+03   0.433E+01 0.349E+01 0.796E+03   0.492E-02 -.172E-02 0.767E-01   0.166E-03 -.964E-03 0.182E+00
   -.268E+01 0.807E+01 -.797E+03   0.269E+01 -.809E+01 0.797E+03   -.507E-02 0.390E-01 0.760E-01   -.358E-03 -.172E-01 0.184E+00
   0.409E+02 0.175E+02 -.255E+04   -.409E+02 -.175E+02 0.255E+04   0.101E-01 0.932E-02 0.320E+01   -.588E-02 -.496E-02 0.528E-01
   0.464E+02 -.104E+02 -.255E+04   -.463E+02 0.104E+02 0.255E+04   -.146E+00 -.220E-01 0.322E+01   -.665E-02 0.101E-01 0.535E-01
   0.239E+02 -.109E+02 -.256E+04   -.239E+02 0.110E+02 0.255E+04   0.261E-01 -.407E-01 0.316E+01   -.644E-02 0.790E-02 0.453E-01
   0.209E+02 0.339E+01 -.256E+04   -.209E+02 -.344E+01 0.256E+04   0.676E-01 0.592E-01 0.319E+01   -.103E-01 -.803E-02 0.445E-01
   0.136E+03 0.101E+03 -.243E+04   -.137E+03 -.102E+03 0.243E+04   0.970E+00 0.773E+00 0.287E+01   -.116E-01 -.711E-02 0.700E-01
   0.166E+03 -.839E+02 -.241E+04   -.165E+03 0.839E+02 0.241E+04   -.562E+00 0.299E-01 0.660E+00   -.137E-01 0.729E-02 0.683E-01
   0.737E+02 -.254E+02 -.247E+04   -.741E+02 0.256E+02 0.246E+04   0.359E+00 -.229E+00 0.293E+01   -.143E-01 0.126E-01 0.577E-01
   0.547E+02 0.349E+01 -.252E+04   -.546E+02 -.376E+01 0.251E+04   -.105E+00 0.270E+00 0.293E+01   -.108E-01 -.779E-02 0.633E-01
   -.129E+03 0.998E+02 -.243E+04   0.130E+03 -.101E+03 0.242E+04   -.102E+01 0.778E+00 0.289E+01   0.401E-02 -.465E-02 0.726E-01
   -.154E+03 -.689E+02 -.239E+04   0.154E+03 0.686E+02 0.239E+04   0.551E+00 0.207E+00 0.722E+00   0.159E-01 0.576E-02 0.732E-01
   -.545E+02 -.131E+02 -.243E+04   0.548E+02 0.130E+02 0.242E+04   -.372E+00 0.183E+00 0.350E+01   0.108E-01 0.951E-02 0.499E-01
   -.348E+02 -.134E+02 -.247E+04   0.348E+02 0.137E+02 0.246E+04   -.192E-01 -.245E+00 0.300E+01   0.898E-02 -.380E-02 0.657E-01
   -.481E+02 0.160E+02 -.255E+04   0.481E+02 -.160E+02 0.254E+04   -.207E-02 0.218E-01 0.317E+01   0.104E-01 -.913E-02 0.546E-01
   -.594E+02 -.367E+01 -.254E+04   0.593E+02 0.367E+01 0.254E+04   0.123E+00 -.339E-02 0.324E+01   0.180E-01 0.674E-02 0.684E-01
   -.532E+02 -.715E+01 -.253E+04   0.534E+02 0.720E+01 0.253E+04   -.175E+00 -.661E-01 0.315E+01   0.159E-01 0.770E-02 0.516E-01
   -.403E+02 -.595E+01 -.255E+04   0.403E+02 0.589E+01 0.254E+04   -.185E-01 0.766E-01 0.311E+01   0.106E-01 -.949E-02 0.633E-01
 -----------------------------------------------------------------------------------------------
   0.409E+01 -.559E+02 0.183E+02   -.121E-12 0.764E-13 -.136E-11   -.408E+01 0.559E+02 -.261E+02   -.175E-01 0.922E-02 0.785E+01
 
 
 POSITION                                       TOTAL-FORCE (eV/Angst)
 -----------------------------------------------------------------------------------
      4.15078      6.39763     20.09239         0.012981      0.000655      0.014093
      4.13855      2.50528     20.25678         0.000650     -0.010072     -0.009933
      5.61879      6.67340     20.50700         0.015570      0.005175      0.000998
      4.11535      2.08675     19.31212         0.007624     -0.008787      0.008900
      4.11009      0.72463     19.46955        -0.000817      0.018366     -0.003545
      4.99032      5.94335     20.33490        -0.001413     -0.003419     -0.003163
      1.37275      1.37275     12.08797        -0.015381     -0.007065     -0.011871
      1.37275      4.11824     12.08797         0.005743     -0.000961      0.018368
      1.37275      6.86373     12.08797         0.000189      0.003461      0.013989
      1.37275      9.60922     12.08797         0.004690     -0.001151     -0.002856
      4.11824      1.37275     12.08797        -0.001587     -0.012718     -0.022215
      4.11824      4.11824     12.08797        -0.002938      0.009813      0.018239
      4.11824      6.86373     12.08797         0.000802     -0.013626      0.020470
      4.11824      9.60922     12.08797         0.000222     -0.011952      0.025086
      6.86373      1.37275     12.08797         0.012247      0.013688      0.012414
      6.86373      4.11824     12.08797        -0.008702      0.001190      0.007440
      6.86373      6.86373     12.08797        -0.001995      0.003248      0.007703
      6.86373      9.60922     12.08797        -0.009864     -0.008655      0.014469
      9.60922      1.37275     12.08797        -0.000802      0.009349     -0.005953
      9.60922      4.11824     12.08797        -0.012454      0.013683     -0.000775
      9.60922      6.86373     12.08797        -0.001327      0.031815     -0.062013
      9.60922      9.60922     12.08797         0.007561     -0.041487     -0.024428
      0.00190     10.97823     14.03479         0.001379     -0.002233     -0.001403
      0.00162      2.74900     14.04104        -0.002815      0.002635     -0.003023
     10.98047      5.49028     14.03904        -0.000814     -0.002401     -0.004824
      0.00155      8.23992     14.04774         0.001042      0.003800     -0.002382
      2.74531     10.97914     14.04203        -0.001532     -0.000351      0.000248
      2.74677      2.74239     14.04207         0.002821     -0.001190      0.000159
      2.74261      5.48517     14.04505        -0.000069     -0.000819     -0.002389
      2.74327      8.23535     14.04214        -0.002138      0.000425      0.000883
      5.48998     10.98068     14.03885         0.000873      0.000057     -0.000270
      5.48734      2.74609     14.04561        -0.002609      0.000547      0.001278
      5.49333      5.48616     14.04164         0.001997     -0.001780     -0.000404
      5.49378      8.23416     14.04628         0.001594      0.000642     -0.000615
      8.23574     10.97947     14.03589        -0.003961      0.001271      0.000240
      8.22897      2.75445     14.04469         0.000252      0.000618      0.001564
      8.23392      5.49100     14.04281        -0.003654     -0.000159      0.000887
      8.23443      8.23934     14.04702        -0.001723      0.000436      0.002442
      1.36044      1.36793     15.98134         0.002883      0.001656     -0.001685
      1.38257      4.09275     16.00916         0.001145     -0.001061     -0.002193
      1.36739      6.86276     15.98300         0.005584      0.003794      0.002093
      1.38936      9.62286     16.01633         0.001066     -0.000361     -0.001439
      4.11498      1.36197     15.98255        -0.003232      0.001226      0.000318
      4.12119      4.11658     15.99982        -0.001539     -0.004600     -0.000515
      4.12389      6.85085     15.98653        -0.003356      0.001664      0.003334
      4.11561      9.60657     15.99443        -0.002369     -0.001682      0.001434
      6.87455      1.37340     15.97623         0.002523     -0.000030     -0.001289
      6.83408      4.11131     16.02869         0.002805     -0.000097      0.000055
      6.86228      6.85154     15.99421         0.003874      0.003537      0.002333
      6.85188      9.62709     16.00741         0.001225     -0.001289     -0.001265
      9.60931      1.37322     15.97608        -0.003016      0.003048      0.000306
      9.60571      4.11880     15.98682        -0.001505     -0.003203      0.002807
      9.60952      6.86313     15.98405        -0.006904      0.003736      0.005108
      9.61144      9.60926     15.98535        -0.003507     -0.002072     -0.000151
     10.95889      0.00207     17.94967        -0.002128      0.002962     -0.004242
     10.96662      2.73784     17.94947         0.001244      0.001218     -0.003994
     10.97640      5.49232     17.94887         0.000934      0.001014     -0.003553
     10.97945      8.23115     17.94575        -0.001361     -0.000157     -0.004854
      2.68568     10.94396     17.99860        -0.000307      0.002475     -0.001263
      2.69380      2.75761     18.00928         0.001596     -0.001830      0.000613
      2.72487      5.49694     17.92072         0.001066      0.002583     -0.003729
      2.75407      8.20721     17.95211        -0.000094     -0.002798     -0.001862
      5.55061     10.95202     17.99969        -0.002000      0.002659      0.000699
      5.53485      2.73514     18.00261        -0.007177     -0.004334      0.008852
      5.50631      5.46877     18.02042        -0.000784      0.002614     -0.002289
      5.49135      8.23053     17.91875        -0.000457      0.000135     -0.001343
      8.25814      0.00378     17.94515         0.001113     -0.000210     -0.003871
      8.24550      2.74035     17.94771         0.007397     -0.002621      0.003799
      8.25747      5.49791     17.94437         0.003192      0.001120     -0.001634
      8.23985      8.23323     17.94610         0.000451     -0.001143      0.001613
 -----------------------------------------------------------------------------------
    total drift:                                0.002048     -0.008791     -0.003494


--------------------------------------------------------------------------------------------------------



  FREE ENERGIE OF THE ION-ELECTRON SYSTEM (eV)
  ---------------------------------------------------
  free  energy   TOTEN  =      -369.18282737 eV

  energy  without entropy=     -369.03760353  energy(sigma->0) =     -369.13441942
 
 d Force = 0.5554125E-04[ 0.408E-04, 0.703E-04]  d Energy = 0.6585767E-04-0.103E-04
 d Force =-0.1424989E+01[-0.142E+01,-0.143E+01]  d Ewald  =-0.1424990E+01 0.544E-06


--------------------------------------------------------------------------------------------------------


    POTLOK:  cpu time    0.1751: real time    0.1765


--------------------------------------------------------------------------------------------------------


 Conjugate gradient step on ions:
 trial-energy change:   -0.000066  1 .order   -0.000056   -0.000070   -0.000041
  (g-gl).g = 0.217E-03      g.g   = 0.248E-03  gl.gl    = 0.465E-03
 g(Force)  = 0.248E-03   g(Stress)= 0.000E+00 ortho     = 0.109E-04
 gamma     =   0.46729
 trial     =   0.27758
 opt step  =   0.66149  (harmonic =   0.66149) maximal distance =0.00099212
 next E    =  -369.182845   (d E  =  -0.00008)


--------------------------------------------------------------------------------------------------------


  
 reached required accuracy - stopping structural energy minimisation
     LOOP+:  cpu time  215.6976: real time  112.5332
    4ORBIT:  cpu time    0.0000: real time    0.0000
 


 total charge     
 
# of ion       s       p       d       tot
------------------------------------------
    1        0.602   0.111   0.000   0.713
    2        0.626   0.074   0.000   0.700
    3        0.612   0.112   0.000   0.724
    4        1.242   2.457   0.000   3.699
    5        1.610   3.364   0.000   4.974
    6        1.594   3.598   0.000   5.192
    7        0.445   0.308   8.524   9.277
    8        0.445   0.308   8.521   9.275
    9        0.445   0.307   8.521   9.273
   10        0.446   0.308   8.522   9.276
   11        0.445   0.308   8.523   9.276
   12        0.445   0.308   8.523   9.276
   13        0.444   0.306   8.523   9.273
   14        0.445   0.307   8.523   9.275
   15        0.444   0.308   8.523   9.275
   16        0.446   0.308   8.521   9.275
   17        0.446   0.307   8.521   9.273
   18        0.445   0.308   8.522   9.275
   19        0.445   0.306   8.525   9.276
   20        0.447   0.307   8.521   9.275
   21        0.440   0.307   8.529   9.275
   22        0.445   0.308   8.522   9.275
   23        0.486   0.480   8.462   9.428
   24        0.486   0.480   8.459   9.425
   25        0.486   0.476   8.465   9.427
   26        0.487   0.478   8.462   9.426
   27        0.487   0.481   8.458   9.426
   28        0.487   0.480   8.459   9.426
   29        0.485   0.477   8.459   9.421
   30        0.484   0.477   8.460   9.421
   31        0.487   0.480   8.459   9.426
   32        0.487   0.480   8.457   9.424
   33        0.486   0.479   8.460   9.425
   34        0.484   0.477   8.458   9.420
   35        0.486   0.480   8.462   9.428
   36        0.486   0.478   8.461   9.424
   37        0.485   0.476   8.463   9.425
   38        0.486   0.476   8.463   9.425
   39        0.487   0.474   8.472   9.433
   40        0.491   0.479   8.464   9.434
   41        0.486   0.479   8.458   9.423
   42        0.490   0.481   8.454   9.425
   43        0.469   0.446   8.484   9.399
   44        0.481   0.467   8.472   9.420
   45        0.486   0.475   8.464   9.424
   46        0.484   0.471   8.467   9.421
   47        0.487   0.474   8.472   9.433
   48        0.492   0.478   8.458   9.428
   49        0.485   0.476   8.458   9.418
   50        0.490   0.482   8.454   9.426
   51        0.487   0.482   8.463   9.432
   52        0.485   0.478   8.458   9.420
   53        0.490   0.482   8.456   9.428
   54        0.486   0.479   8.456   9.422
   55        0.452   0.317   8.521   9.290
   56        0.451   0.316   8.523   9.290
   57        0.447   0.311   8.519   9.277
   58        0.444   0.308   8.521   9.273
   59        0.429   0.361   8.495   9.285
   60        0.476   0.434   8.489   9.398
   61        0.458   0.323   8.534   9.316
   62        0.453   0.315   8.524   9.293
   63        0.429   0.362   8.496   9.287
   64        0.479   0.440   8.491   9.411
   65        0.417   0.335   8.503   9.256
   66        0.456   0.322   8.534   9.311
   67        0.453   0.318   8.520   9.291
   68        0.450   0.315   8.524   9.290
   69        0.449   0.312   8.523   9.283
   70        0.445   0.309   8.522   9.276
--------------------------------------------------
tot         36.142  35.293 543.379 614.814
 


 magnetization (x)
 
# of ion       s       p       d       tot
------------------------------------------
    1       -0.000   0.000   0.000  -0.000
    2        0.000  -0.000   0.000   0.000
    3       -0.000   0.000   0.000   0.000
    4       -0.000  -0.009   0.000  -0.009
    5        0.000   0.001   0.000   0.001
    6        0.000   0.004   0.000   0.005
    7       -0.000  -0.003   0.206   0.203
    8       -0.001  -0.003   0.204   0.200
    9       -0.001  -0.003   0.206   0.202
   10       -0.000  -0.003   0.209   0.206
   11       -0.000  -0.003   0.203   0.199
   12       -0.000  -0.003   0.211   0.208
   13       -0.001  -0.004   0.195   0.190
   14       -0.001  -0.003   0.206   0.201
   15       -0.001  -0.003   0.203   0.198
   16       -0.000  -0.003   0.209   0.205
   17       -0.000  -0.003   0.209   0.206
   18       -0.001  -0.003   0.208   0.204
   19       -0.000  -0.004   0.196   0.192
   20       -0.001  -0.003   0.211   0.208
   21        0.002  -0.003   0.208   0.207
   22       -0.000  -0.003   0.216   0.213
   23       -0.002  -0.006   0.297   0.290
   24       -0.002  -0.006   0.297   0.289
   25       -0.002  -0.006   0.286   0.279
   26       -0.002  -0.006   0.283   0.276
   27       -0.002  -0.006   0.292   0.285
   28       -0.001  -0.006   0.297   0.290
   29       -0.002  -0.006   0.287   0.280
   30       -0.002  -0.006   0.300   0.293
   31       -0.002  -0.006   0.293   0.285
   32       -0.002  -0.006   0.299   0.292
   33       -0.002  -0.006   0.294   0.287
   34       -0.002  -0.006   0.294   0.287
   35       -0.002  -0.006   0.296   0.289
   36       -0.002  -0.006   0.292   0.285
   37       -0.002  -0.005   0.287   0.280
   38       -0.002  -0.006   0.288   0.281
   39       -0.001  -0.005   0.280   0.274
   40       -0.002  -0.006   0.231   0.224
   41       -0.002  -0.005   0.286   0.279
   42       -0.002  -0.006   0.247   0.240
   43       -0.001  -0.005   0.285   0.280
   44       -0.001  -0.005   0.267   0.261
   45       -0.002  -0.005   0.279   0.272
   46       -0.001  -0.005   0.282   0.275
   47       -0.001  -0.005   0.276   0.269
   48       -0.002  -0.006   0.230   0.223
   49       -0.002  -0.005   0.290   0.283
   50       -0.002  -0.006   0.247   0.240
   51       -0.002  -0.005   0.287   0.279
   52       -0.002  -0.005   0.282   0.275
   53       -0.001  -0.006   0.302   0.295
   54       -0.002  -0.005   0.291   0.284
   55       -0.000  -0.003   0.183   0.179
   56       -0.000  -0.003   0.166   0.162
   57       -0.001  -0.003   0.182   0.178
   58       -0.001  -0.003   0.182   0.179
   59       -0.002  -0.003   0.121   0.116
   60       -0.002  -0.004   0.063   0.057
   61       -0.001  -0.003   0.175   0.171
   62       -0.001  -0.003   0.180   0.176
   63       -0.002  -0.003   0.121   0.116
   64       -0.002  -0.004   0.066   0.060
   65       -0.002  -0.003   0.171   0.167
   66       -0.001  -0.003   0.180   0.176
   67       -0.000  -0.003   0.183   0.179
   68       -0.000  -0.004   0.171   0.167
   69       -0.001  -0.003   0.192   0.188
   70       -0.001  -0.003   0.186   0.182
--------------------------------------------------
tot         -0.074  -0.283  14.867  14.511
 

 total amount of memory used by VASP MPI-rank0   228256. kBytes
=======================================================================

   base      :      30000. kBytes
   nonlr-proj:      51590. kBytes
   fftplans  :       5987. kBytes
   grid      :      86893. kBytes
   one-center:       2177. kBytes
   wavefun   :      51609. kBytes
 
  
  
 General timing and accounting informations for this job:
 ========================================================
  
                  Total CPU time used (sec):     6863.094
                            User time (sec):     6713.030
                          System time (sec):      150.063
                         Elapsed time (sec):     5229.181
  
                   Maximum memory used (kb):      713420.
                   Average memory used (kb):           0.
  
                          Minor page faults:      1117592
                          Major page faults:          716
                 Voluntary context switches:        78049
