 vasp.5.4.4.18Apr17-6-g9f103f2a35 (build May 01 2020 14:57:12) complex          
  
 executed on             LinuxIFC date 2021.10.23  15:54:10
 running on   96 total cores
 distrk:  each k-point on   96 cores,    1 groups
 distr:  one band on NCORES_PER_BAND=   1 cores,   96 groups


--------------------------------------------------------------------------------------------------------


 INCAR:
 POTCAR:    PAW_PBE Pd 04Jan2005                  
 POTCAR:    PAW_PBE N 08Apr2002                   
 POTCAR:    PAW_PBE O 08Apr2002                   
 POTCAR:    PAW_PBE H 15Jun2001                   

 ----------------------------------------------------------------------------- 
|                                                                             |
|           W    W    AA    RRRRR   N    N  II  N    N   GGGG   !!!           |
|           W    W   A  A   R    R  NN   N  II  NN   N  G    G  !!!           |
|           W    W  A    A  R    R  N N  N  II  N N  N  G       !!!           |
|           W WW W  AAAAAA  RRRRR   N  N N  II  N  N N  G  GGG   !            |
|           WW  WW  A    A  R   R   N   NN  II  N   NN  G    G                |
|           W    W  A    A  R    R  N    N  II  N    N   GGGG   !!!           |
|                                                                             |
|      For optimal performance we recommend to set                            |
|        NCORE= 4 - approx SQRT( number of cores)                             |
|      NCORE specifies how many cores store one orbital (NPAR=cpu/NCORE).     |
|      This setting can  greatly improve the performance of VASP for DFT.     |
|      The default,   NCORE=1            might be grossly inefficient         |
|      on modern multi-core architectures or massively parallel machines.     |
|      Do your own testing !!!!                                               |
|      Unfortunately you need to use the default for GW and RPA calculations. |
|      (for HF NCORE is supported but not extensively tested yet)             |
|                                                                             |
 ----------------------------------------------------------------------------- 

 POTCAR:    PAW_PBE Pd 04Jan2005                  
   VRHFIN =Pd : s1 d9                                                           
   LEXCH  = PE                                                                  
   EATOM  =   809.7530 eV,   59.5152 Ry                                         
                                                                                
   TITEL  = PAW_PBE Pd 04Jan2005                                                
   LULTRA =        F    use ultrasoft PP ?                                      
   IUNSCR =        1    unscreen: 0-lin 1-nonlin 2-no                           
   RPACOR =    2.000    partial core radius                                     
   POMASS =  106.420; ZVAL   =   10.000    mass and valenz                      
   RCORE  =    2.600    outmost cutoff radius                                   
   RWIGS  =    2.710; RWIGS  =    1.434    wigner-seitz radius (au A)           
   ENMAX  =  250.925; ENMIN  =  188.194 eV                                      
   ICORE  =        3    local potential                                         
   LCOR   =        T    correct aug charges                                     
   LPAW   =        T    paw PP                                                  
   EAUG   =  416.230                                                            
   DEXC   =    0.000                                                            
   RMAX   =    2.653    core radius for proj-oper                               
   RAUG   =    1.300    factor for augmentation sphere                          
   RDEP   =    2.734    radius for radial grids                                 
   RDEPT  =    2.103    core radius for aug-charge                              
                                                                                
   Atomic configuration                                                         
   12 entries                                                                   
     n  l   j            E        occ.                                          
     1  0  0.50    -24164.6631   2.0000                                         
     2  0  0.50     -3530.9218   2.0000                                         
     2  1  1.50     -3165.6822   6.0000                                         
     3  0  0.50      -639.4577   2.0000                                         
     3  1  1.50      -519.4532   6.0000                                         
     3  2  2.50      -328.9757  10.0000                                         
     4  0  0.50       -88.7014   2.0000                                         
     4  1  1.50       -54.4540   6.0000                                         
     4  2  2.50        -6.6878   9.0000                                         
     5  0  0.50        -4.3543   1.0000                                         
     5  1  0.50        -1.3606   0.0000                                         
     4  3  2.50        -1.3606   0.0000                                         
   Description                                                                  
     l       E           TYP  RCUT    TYP  RCUT                                 
     2     -6.6878251     23  2.400                                             
     2     -8.0484077     23  2.400                                             
     0     -4.3542939     23  2.400                                             
     0      4.3406793     23  2.400                                             
     1     -4.0817478     23  2.600                                             
     1     15.8380318     23  2.600                                             
     3     -4.0817478     23  2.400                                             
  local pseudopotential read in
  partial core-charges read in
  partial kinetic energy density read in
  atomic valenz-charges read in
  non local Contribution for L=           2  read in
    real space projection operators read in
  non local Contribution for L=           2  read in
    real space projection operators read in
  non local Contribution for L=           0  read in
    real space projection operators read in
  non local Contribution for L=           0  read in
    real space projection operators read in
  non local Contribution for L=           1  read in
    real space projection operators read in
  non local Contribution for L=           1  read in
    real space projection operators read in
    PAW grid and wavefunctions read in
 
   number of l-projection  operators is LMAX  =           6
   number of lm-projection operators is LMMAX =          18
 
 POTCAR:    PAW_PBE N 08Apr2002                   
   VRHFIN =N: s2p3                                                              
   LEXCH  = PE                                                                  
   EATOM  =   264.5486 eV,   19.4438 Ry                                         
                                                                                
   TITEL  = PAW_PBE N 08Apr2002                                                 
   LULTRA =        F    use ultrasoft PP ?                                      
   IUNSCR =        1    unscreen: 0-lin 1-nonlin 2-no                           
   RPACOR =    1.200    partial core radius                                     
   POMASS =   14.001; ZVAL   =    5.000    mass and valenz                      
   RCORE  =    1.500    outmost cutoff radius                                   
   RWIGS  =    1.400; RWIGS  =    0.741    wigner-seitz radius (au A)           
   ENMAX  =  400.000; ENMIN  =  300.000 eV                                      
   ICORE  =        2    local potential                                         
   LCOR   =        T    correct aug charges                                     
   LPAW   =        T    paw PP                                                  
   EAUG   =  627.112                                                            
   DEXC   =    0.000                                                            
   RMAX   =    1.529    core radius for proj-oper                               
   RAUG   =    1.300    factor for augmentation sphere                          
   RDEP   =    1.514    radius for radial grids                                 
   RDEPT  =    1.338    core radius for aug-charge                              
                                                                                
   Atomic configuration                                                         
    4 entries                                                                   
     n  l   j            E        occ.                                          
     1  0  0.50      -384.7179   2.0000                                         
     2  0  0.50       -18.5828   2.0000                                         
     2  1  0.50        -7.0898   3.0000                                         
     3  2  1.50        -6.8029   0.0000                                         
   Description                                                                  
     l       E           TYP  RCUT    TYP  RCUT                                 
     0    -18.5828119     23  1.200                                             
     0    -13.5018863     23  1.200                                             
     1     -7.0897853     23  1.500                                             
     1      9.5240782     23  1.500                                             
     2     -6.8029130      7  1.500                                             
  local pseudopotential read in
  partial core-charges read in
  partial kinetic energy density read in
  atomic valenz-charges read in
  non local Contribution for L=           0  read in
    real space projection operators read in
  non local Contribution for L=           0  read in
    real space projection operators read in
  non local Contribution for L=           1  read in
    real space projection operators read in
  non local Contribution for L=           1  read in
    real space projection operators read in
    PAW grid and wavefunctions read in
 
   number of l-projection  operators is LMAX  =           4
   number of lm-projection operators is LMMAX =           8
 
 POTCAR:    PAW_PBE O 08Apr2002                   
   VRHFIN =O: s2p4                                                              
   LEXCH  = PE                                                                  
   EATOM  =   432.3788 eV,   31.7789 Ry                                         
                                                                                
   TITEL  = PAW_PBE O 08Apr2002                                                 
   LULTRA =        F    use ultrasoft PP ?                                      
   IUNSCR =        1    unscreen: 0-lin 1-nonlin 2-no                           
   RPACOR =    1.200    partial core radius                                     
   POMASS =   16.000; ZVAL   =    6.000    mass and valenz                      
   RCORE  =    1.520    outmost cutoff radius                                   
   RWIGS  =    1.550; RWIGS  =    0.820    wigner-seitz radius (au A)           
   ENMAX  =  400.000; ENMIN  =  300.000 eV                                      
   ICORE  =        2    local potential                                         
   LCOR   =        T    correct aug charges                                     
   LPAW   =        T    paw PP                                                  
   EAUG   =  605.392                                                            
   DEXC   =    0.000                                                            
   RMAX   =    1.553    core radius for proj-oper                               
   RAUG   =    1.300    factor for augmentation sphere                          
   RDEP   =    1.550    radius for radial grids                                 
   RDEPT  =    1.329    core radius for aug-charge                              
                                                                                
   Atomic configuration                                                         
    4 entries                                                                   
     n  l   j            E        occ.                                          
     1  0  0.50      -514.6923   2.0000                                         
     2  0  0.50       -23.9615   2.0000                                         
     2  1  0.50        -9.0305   4.0000                                         
     3  2  1.50        -9.5241   0.0000                                         
   Description                                                                  
     l       E           TYP  RCUT    TYP  RCUT                                 
     0    -23.9615318     23  1.200                                             
     0     -9.5240782     23  1.200                                             
     1     -9.0304911     23  1.520                                             
     1      8.1634956     23  1.520                                             
     2     -9.5240782      7  1.500                                             
  local pseudopotential read in
  partial core-charges read in
  partial kinetic energy density read in
  kinetic energy density of atom read in
  atomic valenz-charges read in
  non local Contribution for L=           0  read in
    real space projection operators read in
  non local Contribution for L=           0  read in
    real space projection operators read in
  non local Contribution for L=           1  read in
    real space projection operators read in
  non local Contribution for L=           1  read in
    real space projection operators read in
    PAW grid and wavefunctions read in
 
   number of l-projection  operators is LMAX  =           4
   number of lm-projection operators is LMMAX =           8
 
 POTCAR:    PAW_PBE H 15Jun2001                   
   VRHFIN =H: ultrasoft test                                                    
   LEXCH  = PE                                                                  
   EATOM  =    12.4884 eV,    0.9179 Ry                                         
                                                                                
   TITEL  = PAW_PBE H 15Jun2001                                                 
   LULTRA =        F    use ultrasoft PP ?                                      
   IUNSCR =        0    unscreen: 0-lin 1-nonlin 2-no                           
   RPACOR =    0.000    partial core radius                                     
   POMASS =    1.000; ZVAL   =    1.000    mass and valenz                      
   RCORE  =    1.100    outmost cutoff radius                                   
   RWIGS  =    0.700; RWIGS  =    0.370    wigner-seitz radius (au A)           
   ENMAX  =  250.000; ENMIN  =  200.000 eV                                      
   RCLOC  =    0.701    cutoff for local pot                                    
   LCOR   =        T    correct aug charges                                     
   LPAW   =        T    paw PP                                                  
   EAUG   =  400.000                                                            
   RMAX   =    1.123    core radius for proj-oper                               
   RAUG   =    1.200    factor for augmentation sphere                          
   RDEP   =    1.112    radius for radial grids                                 
   RDEPT  =    0.926    core radius for aug-charge                              
                                                                                
   Atomic configuration                                                         
    2 entries                                                                   
     n  l   j            E        occ.                                          
     1  0  0.50        -6.4927   1.0000                                         
     2  1  0.50        -3.4015   0.0000                                         
   Description                                                                  
     l       E           TYP  RCUT    TYP  RCUT                                 
     0     -6.4927494     23  1.100                                             
     0      6.8029130     23  1.100                                             
     1     -4.0817478     23  1.100                                             
  local pseudopotential read in
  atomic valenz-charges read in
  non local Contribution for L=           0  read in
    real space projection operators read in
  non local Contribution for L=           0  read in
    real space projection operators read in
  non local Contribution for L=           1  read in
    real space projection operators read in
    PAW grid and wavefunctions read in
 
   number of l-projection  operators is LMAX  =           3
   number of lm-projection operators is LMMAX =           5
 
 Optimization of the real space projectors (new method)

 maximal supplied QI-value         = 14.36
 optimisation between [QCUT,QGAM] = [ 10.20, 20.39] = [ 29.12,116.47] Ry 
 Optimized for a Real-space Cutoff    1.55 Angstroem

   l    n(q)    QCUT    max X(q) W(low)/X(q) W(high)/X(q)  e(spline) 
   2      9    10.197    59.108    0.12E-03    0.40E-04    0.11E-06
   2      9    10.197    58.101    0.12E-03    0.39E-04    0.12E-06
   0      9    10.197   102.235    0.41E-04    0.86E-05    0.83E-07
   0      9    10.197    58.388    0.37E-04    0.79E-05    0.78E-07
   1      9    10.197    22.191    0.25E-03    0.13E-03    0.84E-07
   1      9    10.197    15.590    0.21E-03    0.11E-03    0.74E-07
 Optimization of the real space projectors (new method)

 maximal supplied QI-value         = 25.13
 optimisation between [QCUT,QGAM] = [ 10.05, 20.36] = [ 28.30,116.06] Ry 
 Optimized for a Real-space Cutoff    1.70 Angstroem

   l    n(q)    QCUT    max X(q) W(low)/X(q) W(high)/X(q)  e(spline) 
   0     10    10.053    79.467    0.61E-04    0.98E-04    0.61E-06
   0     10    10.053    66.151    0.60E-04    0.98E-04    0.61E-06
   1     10    10.053     8.350    0.17E-03    0.71E-03    0.45E-05
   1     10    10.053     5.531    0.18E-03    0.77E-03    0.49E-05
 Optimization of the real space projectors (new method)

 maximal supplied QI-value         = 24.76
 optimisation between [QCUT,QGAM] = [ 10.15, 20.30] = [ 28.85,115.39] Ry 
 Optimized for a Real-space Cutoff    1.51 Angstroem

   l    n(q)    QCUT    max X(q) W(low)/X(q) W(high)/X(q)  e(spline) 
   0      9    10.150    20.381    0.17E-03    0.18E-03    0.41E-06
   0      9    10.150    15.268    0.18E-03    0.20E-03    0.43E-06
   1      9    10.150     5.964    0.16E-03    0.20E-03    0.36E-06
   1      9    10.150     5.382    0.13E-03    0.16E-03    0.33E-06
 Optimization of the real space projectors (new method)

 maximal supplied QI-value         = 34.20
 optimisation between [QCUT,QGAM] = [  9.92, 20.18] = [ 27.55,114.04] Ry 
 Optimized for a Real-space Cutoff    1.34 Angstroem

   l    n(q)    QCUT    max X(q) W(low)/X(q) W(high)/X(q)  e(spline) 
   0      8     9.919    19.460    0.16E-03    0.20E-03    0.36E-06
   0      8     9.919    12.209    0.16E-03    0.20E-03    0.35E-06
   1      8     9.919     4.655    0.19E-03    0.46E-03    0.40E-06
  PAW_PBE Pd 04Jan2005                  :
 energy of atom  1       EATOM= -809.7530
 kinetic energy error for atom=    0.0091 (will be added to EATOM!!)
  PAW_PBE N 08Apr2002                   :
 energy of atom  2       EATOM= -264.5486
 kinetic energy error for atom=    0.0736 (will be added to EATOM!!)
  PAW_PBE O 08Apr2002                   :
 energy of atom  3       EATOM= -432.3788
 kinetic energy error for atom=    0.1156 (will be added to EATOM!!)
  PAW_PBE H 15Jun2001                   :
 energy of atom  4       EATOM=  -12.4884
 kinetic energy error for atom=    0.0098 (will be added to EATOM!!)
 
 
 POSCAR: Pd N O H                                
  positions in direct lattice
  velocities in cartesian coordinates
 exchange correlation table for  LEXCH =        8
   RHO(1)=    0.500       N(1)  =     2000
   RHO(2)=  100.500       N(2)  =     4000
 


--------------------------------------------------------------------------------------------------------


 ion  position               nearest neighbor table
   1  0.125  0.125  0.403-   2 2.75   5 2.75   4 2.75  13 2.75  22 2.75  21 2.75  17 2.75  18 2.75

   2  0.125  0.375  0.403-   1 2.75   3 2.75   6 2.75  14 2.75  22 2.75  23 2.75  19 2.76  18 2.76

   3  0.125  0.625  0.403-   2 2.75   4 2.75   7 2.75  15 2.75  23 2.75  19 2.75  24 2.75  20 2.75

   4  0.125  0.875  0.403-   3 2.75   8 2.75   1 2.75  16 2.75  21 2.75  20 2.75  24 2.75  17 2.75

   5  0.375  0.125  0.403-   1 2.75   6 2.75   9 2.75   8 2.75  26 2.75  25 2.75  22 2.76  21 2.76

   6  0.375  0.375  0.403-   2 2.75   5 2.75   7 2.75  10 2.75  27 2.75  26 2.75  23 2.76  22 2.76

   7  0.375  0.625  0.403-   3 2.75   6 2.75   8 2.75  11 2.75  27 2.75  28 2.75  23 2.75  24 2.76

   8  0.375  0.875  0.403-   4 2.75   7 2.75  12 2.75   5 2.75  25 2.75  28 2.75  21 2.76  24 2.76

   9  0.625  0.125  0.403-   5 2.75  10 2.75  13 2.75  12 2.75  26 2.75  25 2.75  30 2.75  29 2.75

  10  0.625  0.375  0.403-   6 2.75   9 2.75  11 2.75  14 2.75  27 2.75  26 2.75  31 2.76  30 2.76

  11  0.625  0.625  0.403-   7 2.75  10 2.75  12 2.75  15 2.75  27 2.75  31 2.75  28 2.75  32 2.76

  12  0.625  0.875  0.403-   8 2.75  11 2.75  16 2.75   9 2.75  28 2.75  25 2.75  29 2.76  32 2.76

  13  0.875  0.125  0.403-   9 2.75  14 2.75   1 2.75  16 2.75  18 2.75  17 2.75  29 2.76  30 2.76

  14  0.875  0.375  0.403-  10 2.75  13 2.75  15 2.75   2 2.75  18 2.75  19 2.75  31 2.76  30 2.76

  15  0.875  0.625  0.403-  11 2.75  14 2.75  16 2.75   3 2.75  19 2.75  20 2.75  31 2.75  32 2.76

  16  0.875  0.875  0.403-  12 2.75  15 2.75  13 2.75   4 2.75  20 2.75  17 2.75  32 2.76  29 2.76

  17  1.000  0.000  0.468-  18 2.74  21 2.74  20 2.74  29 2.74  48 2.75  36 2.75  13 2.75  16 2.75
                             1 2.75   4 2.75  45 2.76  33 2.78
  18  1.000  0.250  0.468-  17 2.74  22 2.74  30 2.74  34 2.75  13 2.75  45 2.75   1 2.75  19 2.75
                            14 2.75  46 2.76   2 2.76  33 2.76
  19  1.000  0.500  0.468-  20 2.74  23 2.74  31 2.74  34 2.75  15 2.75  47 2.75   3 2.75  18 2.75
                            14 2.75  46 2.76   2 2.76  35 2.76
  20  1.000  0.750  0.468-  24 2.74  19 2.74  17 2.74  32 2.74  36 2.75  16 2.75  48 2.75   4 2.75
                            15 2.75   3 2.75  47 2.76  35 2.78
  21  0.249  0.000  0.468-  22 2.74  17 2.74  24 2.75  36 2.75  37 2.75  40 2.75   1 2.75  25 2.75
                             4 2.75   5 2.76   8 2.76  33 2.76
  22  0.249  0.250  0.468-  38 2.72  21 2.74  18 2.74   1 2.75  33 2.75  23 2.75  26 2.75   2 2.75
                            37 2.75  34 2.75   5 2.76   6 2.76
  23  0.250  0.500  0.468-  38 2.72  24 2.74  19 2.74   3 2.75  27 2.75  35 2.75  22 2.75   2 2.75
                            39 2.75   7 2.75  34 2.76   6 2.76
  24  0.249  0.750  0.468-  23 2.74  20 2.74  21 2.75  40 2.75  39 2.75  36 2.75  28 2.75   3 2.75
                             4 2.75   7 2.76   8 2.76  35 2.76
  25  0.500  0.000  0.468-  26 2.74  29 2.74  28 2.75  40 2.75  44 2.75  21 2.75  37 2.75   5 2.75
                             9 2.75   8 2.75  12 2.75  41 2.76
  26  0.500  0.250  0.468-  38 2.73  25 2.74  30 2.74  42 2.75   5 2.75  41 2.75   9 2.75  27 2.75
                            22 2.75   6 2.75  10 2.75  37 2.75
  27  0.500  0.500  0.468-  38 2.73  28 2.74  31 2.74  42 2.75  11 2.75  23 2.75   7 2.75  26 2.75
                            43 2.75  39 2.75  10 2.75   6 2.75
  28  0.500  0.750  0.468-  27 2.74  32 2.74  25 2.75  40 2.75  39 2.75  44 2.75  24 2.75  11 2.75
                             7 2.75  12 2.75   8 2.75  43 2.76
  29  0.750  0.000  0.468-  30 2.74  17 2.74  25 2.74  32 2.75  48 2.75  44 2.75  45 2.75   9 2.75
                            13 2.76  12 2.76  16 2.76  41 2.77
  30  0.750  0.250  0.468-  29 2.74  42 2.74  26 2.74  18 2.74  45 2.75  31 2.75  46 2.75   9 2.75
                            10 2.76  13 2.76  14 2.76  41 2.76
  31  0.750  0.500  0.468-  32 2.74  27 2.74  42 2.74  19 2.74  47 2.75  30 2.75  11 2.75  46 2.75
                            15 2.75  10 2.76  14 2.76  43 2.76
  32  0.750  0.750  0.468-  31 2.74  20 2.74  28 2.74  29 2.75  48 2.75  47 2.75  44 2.75  12 2.76
                            11 2.76  16 2.76  15 2.76  43 2.77
  33  0.126  0.126  0.534-  34 2.73  37 2.74  53 2.75  50 2.75  22 2.75  49 2.75  36 2.76  45 2.76
                            18 2.76  21 2.76  54 2.77  17 2.78
  34  0.124  0.375  0.533-  33 2.73  35 2.73  46 2.73  18 2.75  19 2.75  38 2.75  22 2.75  23 2.76
                            51 2.76  50 2.76  54 2.80  55 2.80
  35  0.126  0.624  0.534-  34 2.73  39 2.74  56 2.74  51 2.75  23 2.75  52 2.76  47 2.76  36 2.76
                            19 2.76  24 2.76  55 2.77  20 2.78
  36  0.125  0.875  0.533-  48 2.74  40 2.75  21 2.75  24 2.75  17 2.75  20 2.75  52 2.75  56 2.75
                            49 2.76  53 2.76  33 2.76  35 2.76
  37  0.375  0.125  0.533-  41 2.73  33 2.74  40 2.74  21 2.75  38 2.75  25 2.75  22 2.75  26 2.75
                            57 2.76  53 2.76  58 2.79  54 2.81
  38  0.374  0.375  0.532-  23 2.72  22 2.72  26 2.73  27 2.73  34 2.75  37 2.75  39 2.75  42 2.76
                            59 2.82  58 2.82  55 2.82  54 2.82
  39  0.375  0.625  0.533-  43 2.73  35 2.74  40 2.74  24 2.75  28 2.75  38 2.75  23 2.75  27 2.75
                            56 2.76  60 2.76  59 2.79  55 2.80
  40  0.375  0.875  0.533-  37 2.74  44 2.74  39 2.74  36 2.75  24 2.75  28 2.75  25 2.75  21 2.75
                            56 2.76  57 2.76  60 2.76  53 2.76
  41  0.623  0.126  0.534-  37 2.73  42 2.74  57 2.75  26 2.75  44 2.75  45 2.76  61 2.76  25 2.76
                            30 2.76  62 2.77  29 2.77  58 2.80
  42  0.625  0.375  0.533-  41 2.74  43 2.74  30 2.74  46 2.74  31 2.74  26 2.75  27 2.75  38 2.76
                            62 2.79  63 2.80  59 2.81  58 2.82
  43  0.624  0.624  0.534-  39 2.73  42 2.74  60 2.75  27 2.75  44 2.75  47 2.76  64 2.76  28 2.76
                            63 2.76  31 2.76  32 2.77  59 2.79
  44  0.625  0.875  0.533-  40 2.74  48 2.75  25 2.75  29 2.75  32 2.75  28 2.75  64 2.75  41 2.75
                            43 2.75  61 2.75  57 2.76  60 2.76
  45  0.874  0.125  0.533-  46 2.74  30 2.75  48 2.75  50 2.75  29 2.75  18 2.75  49 2.75  41 2.76
                            61 2.76  33 2.76  17 2.76  62 2.77
  46  0.875  0.375  0.533-  34 2.73  45 2.74  47 2.74  42 2.74  30 2.75  31 2.75  50 2.76  51 2.76
                            18 2.76  19 2.76  63 2.79  62 2.79
  47  0.875  0.625  0.533-  46 2.74  31 2.75  32 2.75  48 2.75  51 2.75  19 2.75  64 2.75  52 2.76
                            43 2.76  35 2.76  20 2.76  63 2.77
  48  0.875  0.875  0.533-  36 2.74  29 2.75  45 2.75  44 2.75  32 2.75  17 2.75  47 2.75  20 2.75
                            64 2.75  49 2.75  52 2.75  61 2.76
  49  0.999  0.000  0.598-  52 2.74  61 2.74  50 2.74  53 2.75  48 2.75  45 2.75  33 2.75  36 2.76

  50  0.999  0.250  0.598-  62 2.74  49 2.74  33 2.75  54 2.75  51 2.75  45 2.75  46 2.76  34 2.76

  51  0.999  0.500  0.598-  63 2.74  52 2.75  35 2.75  55 2.75  50 2.75  47 2.75  46 2.76  34 2.76

  52  1.000  0.750  0.598-  49 2.74  64 2.74  51 2.75  56 2.75  48 2.75  36 2.75  47 2.76  35 2.76

  53  0.250  1.000  0.598-  56 2.74  57 2.74  33 2.75  49 2.75  54 2.75  36 2.76  37 2.76  40 2.76

  54  0.249  0.250  0.600-  65 2.12  58 2.72  55 2.74  50 2.75  53 2.75  33 2.77  34 2.80  37 2.81
                            38 2.82
  55  0.250  0.500  0.600-  65 2.13  59 2.72  54 2.74  51 2.75  56 2.75  35 2.77  34 2.80  39 2.80
                            38 2.82
  56  0.250  0.750  0.598-  53 2.74  60 2.74  35 2.74  52 2.75  55 2.75  36 2.75  39 2.76  40 2.76

  57  0.499  0.999  0.598-  60 2.73  53 2.74  61 2.75  41 2.75  40 2.76  44 2.76  37 2.76  58 2.76

  58  0.497  0.251  0.600-  70 2.09  65 2.26  54 2.72  59 2.73  57 2.76  62 2.77  37 2.79  41 2.80
                            38 2.82  42 2.82
  59  0.498  0.499  0.600-  70 2.07  65 2.27  55 2.72  58 2.73  60 2.76  63 2.77  39 2.79  43 2.79
                            42 2.81  38 2.82
  60  0.500  0.751  0.598-  57 2.73  56 2.74  64 2.75  43 2.75  44 2.76  40 2.76  39 2.76  59 2.76

  61  0.750  1.000  0.598-  64 2.73  62 2.74  49 2.74  57 2.75  44 2.75  45 2.76  48 2.76  41 2.76

  62  0.749  0.249  0.600-  70 1.86  61 2.74  50 2.74  58 2.77  41 2.77  45 2.77  63 2.77  46 2.79
                            42 2.79
  63  0.750  0.502  0.599-  70 1.84  64 2.74  51 2.74  43 2.76  59 2.77  47 2.77  62 2.77  46 2.79
                            42 2.80
  64  0.750  0.751  0.598-  61 2.73  63 2.74  52 2.74  60 2.75  44 2.75  48 2.75  47 2.75  43 2.76

  65  0.363  0.375  0.635-  66 1.23  54 2.12  55 2.13  58 2.26  59 2.27
  66  0.362  0.375  0.676-  65 1.23
  67  0.626  0.368  0.696-  68 0.97  69 0.98
  68  0.654  0.337  0.725-  67 0.97
  69  0.537  0.370  0.699-  67 0.98
  70  0.639  0.377  0.606-  63 1.84  62 1.86  59 2.07  58 2.09
 
  LATTYP: Found a simple tetragonal cell.
 ALAT       =    10.9820000000
 C/A-ratio  =     2.7317428519
  
  Lattice vectors:
  
 A1 = (  10.9820000000,   0.0000000000,   0.0000000000)
 A2 = (   0.0000000000,  10.9820000000,   0.0000000000)
 A3 = (   0.0000000000,   0.0000000000,  30.0000000000)


Analysis of symmetry for initial positions (statically):
=====================================================================
 Subroutine PRICEL returns:
 Original cell was already a primitive cell.
 

 Routine SETGRP: Setting up the symmetry group for a 
 simple tetragonal supercell.


 Subroutine GETGRP returns: Found  1 space group operations
 (whereof  1 operations were pure point group operations)
 out of a pool of 16 trial point group operations.


The static configuration has the point symmetry C_1 .


Analysis of symmetry for dynamics (positions and initial velocities):
=====================================================================
 Subroutine PRICEL returns:
 Original cell was already a primitive cell.
 

 Routine SETGRP: Setting up the symmetry group for a 
 simple tetragonal supercell.


 Subroutine GETGRP returns: Found  1 space group operations
 (whereof  1 operations were pure point group operations)
 out of a pool of 16 trial point group operations.


The dynamic configuration has the point symmetry C_1 .


Analysis of constrained symmetry for selective dynamics:
=====================================================================
 Subroutine PRICEL returns:
 Original cell was already a primitive cell.
 

 Routine SETGRP: Setting up the symmetry group for a 
 simple tetragonal supercell.


 Subroutine GETGRP returns: Found  1 space group operations
 (whereof  1 operations were pure point group operations)
 out of a pool of 16 trial point group operations.


The constrained configuration has the point symmetry C_1 .


Analysis of structural, dynamic, and magnetic symmetry:
=====================================================================
 Subroutine PRICEL returns:
 Original cell was already a primitive cell.
 

 Routine SETGRP: Setting up the symmetry group for a 
 simple tetragonal supercell.


 Subroutine GETGRP returns: Found  1 space group operations
 (whereof  1 operations were pure point group operations)
 out of a pool of 16 trial point group operations.


The magnetic configuration has the point symmetry C_1 .


 Subroutine INISYM returns: Found  1 space group operations
 (whereof  1 operations are pure point group operations),
 and found     1 'primitive' translations

 
 
 KPOINTS: K-Point Grid                            

Automatic generation of k-mesh.
Space group operators:
 irot       det(A)        alpha          n_x          n_y          n_z        tau_x        tau_y        tau_z
    1     1.000000     0.000001     1.000000     0.000000     0.000000     0.000000     0.000000     0.000000
 
 Subroutine IBZKPT returns following result:
 ===========================================
 
 Found      8 irreducible k-points:
 
 Following reciprocal coordinates:
            Coordinates               Weight
  0.125000  0.125000  0.000000      2.000000
  0.375000  0.125000  0.000000      2.000000
 -0.375000  0.125000  0.000000      2.000000
 -0.125000  0.125000  0.000000      2.000000
  0.125000  0.375000  0.000000      2.000000
  0.375000  0.375000  0.000000      2.000000
 -0.375000  0.375000  0.000000      2.000000
 -0.125000  0.375000  0.000000      2.000000
 
 Following cartesian coordinates:
            Coordinates               Weight
  0.011382  0.011382  0.000000      2.000000
  0.034147  0.011382  0.000000      2.000000
 -0.034147  0.011382  0.000000      2.000000
 -0.011382  0.011382  0.000000      2.000000
  0.011382  0.034147  0.000000      2.000000
  0.034147  0.034147  0.000000      2.000000
 -0.034147  0.034147  0.000000      2.000000
 -0.011382  0.034147  0.000000      2.000000
 


--------------------------------------------------------------------------------------------------------




 Dimension of arrays:
   k-points           NKPTS =      8   k-points in BZ     NKDIM =      8   number of bands    NBANDS=    480
   number of dos      NEDOS =   1200   number of ions     NIONS =     70
   non local maximal  LDIM  =      6   non local SUM 2l+1 LMDIM =     18
   total plane-waves  NPLWV = ******
   max r-space proj   IRMAX =   5807   max aug-charges    IRDMAX=  13820
   dimension x,y,z NGX =    72 NGY =   72 NGZ =  196
   dimension x,y,z NGXF=   144 NGYF=  144 NGZF=  392
   support grid    NGXF=   144 NGYF=  144 NGZF=  392
   ions per type =              64   1   2   3
   NGX,Y,Z   is equivalent  to a cutoff of  10.90, 10.90, 10.86 a.u.
   NGXF,Y,Z  is equivalent  to a cutoff of  21.80, 21.80, 21.72 a.u.

 SYSTEM =  Pd_100_surface                          
 POSCAR =  Pd N O H                                

 Startparameter for this run:
   NWRITE =      2    write-flag & timer
   PREC   = accura    normal or accurate (medium, high low for compatibility)
   ISTART =      0    job   : 0-new  1-cont  2-samecut
   ICHARG =      2    charge: 1-file 2-atom 10-const
   ISPIN  =      2    spin polarized calculation?
   LNONCOLLINEAR =      F non collinear calculations
   LSORBIT =      F    spin-orbit coupling
   INIWAV =      1    electr: 0-lowe 1-rand  2-diag
   LASPH  =      F    aspherical Exc in radial PAW
   METAGGA=      F    non-selfconsistent MetaGGA calc.

 Electronic Relaxation 1
   ENCUT  =  400.0 eV  29.40 Ry    5.42 a.u.  17.91 17.91 48.92*2*pi/ulx,y,z
   ENINI  =  400.0     initial cutoff
   ENAUG  =  627.1 eV  augmentation charge cutoff
   NELM   =    100;   NELMIN=  2; NELMDL=  0     # of ELM steps 
   EDIFF  = 0.1E-04   stopping-criterion for ELM
   LREAL  =      T    real-space projection
   NLSPLINE    = F    spline interpolate recip. space projectors
   LCOMPAT=      F    compatible to vasp.4.4
   GGA_COMPAT  = T    GGA compatible to vasp.4.4-vasp.4.6
   LMAXPAW     = -100 max onsite density
   LMAXMIX     =    2 max onsite mixed and CHGCAR
   VOSKOWN=      0    Vosko Wilk Nusair interpolation
   ROPT   =   -0.00025  -0.00025  -0.00025  -0.00025
 Ionic relaxation
   EDIFFG = -.2E-01   stopping-criterion for IOM
   NSW    =    300    number of steps for IOM
   NBLOCK =      1;   KBLOCK =    300    inner block; outer block 
   IBRION =      2    ionic relax: 0-MD 1-quasi-New 2-CG
   NFREE  =      1    steps in history (QN), initial steepest desc. (CG)
   ISIF   =      2    stress and relaxation
   IWAVPR =     11    prediction:  0-non 1-charg 2-wave 3-comb
   ISYM   =      2    0-nonsym 1-usesym 2-fastsym
   LCORR  =      T    Harris-Foulkes like correction to forces

   POTIM  = 0.5000    time-step for ionic-motion
   TEIN   =    0.0    initial temperature
   TEBEG  =    0.0;   TEEND  =   0.0 temperature during run
   SMASS  =  -3.00    Nose mass-parameter (am)
   estimated Nose-frequenzy (Omega)   =  0.10E-29 period in steps =****** mass=  -0.276E-26a.u.
   SCALEE = 1.0000    scale energy and forces
   NPACO  =    256;   APACO  = 16.0  distance and # of slots for P.C.
   PSTRESS=    0.0 pullay stress

  Mass of Ions in am
   POMASS = 106.42 14.00 16.00  1.00
  Ionic Valenz
   ZVAL   =  10.00  5.00  6.00  1.00
  Atomic Wigner-Seitz radii
   RWIGS  =  -1.00 -1.00 -1.00 -1.00
  virtual crystal weights 
   VCA    =   1.00  1.00  1.00  1.00
   NELECT =     660.0000    total number of electrons
   NUPDOWN=      -1.0000    fix difference up-down

 DOS related values:
   EMIN   =  10.00;   EMAX   =-10.00  energy-range for DOS
   EFERMI =   0.00
   ISMEAR =     1;   SIGMA  =   0.20  broadening in eV -4-tet -1-fermi 0-gaus

 Electronic relaxation 2 (details)
   IALGO  =     68    algorithm
   LDIAG  =      T    sub-space diagonalisation (order eigenvalues)
   LSUBROT=      F    optimize rotation matrix (better conditioning)
   TURBO    =      0    0=normal 1=particle mesh
   IRESTART =      0    0=no restart 2=restart with 2 vectors
   NREBOOT  =      0    no. of reboots
   NMIN     =      0    reboot dimension
   EREF     =   0.00    reference energy to select bands
   IMIX   =      4    mixing-type and parameters
     AMIX     =   0.40;   BMIX     =  1.00
     AMIX_MAG =   1.60;   BMIX_MAG =  1.00
     AMIN     =   0.10
     WC   =   100.;   INIMIX=   1;  MIXPRE=   1;  MAXMIX= -45

 Intra band minimization:
   WEIMIN = 0.0010     energy-eigenvalue tresh-hold
   EBREAK =  0.52E-08  absolut break condition
   DEPER  =   0.30     relativ break condition  

   TIME   =   0.40     timestep for ELM

  volume/ion in A,a.u.               =      51.69       348.80
  Fermi-wavevector in a.u.,A,eV,Ry     =   0.928456  1.754528 11.728643  0.862031
  Thomas-Fermi vector in A             =   2.054635
 
 Write flags
   LWAVE        =      F    write WAVECAR
   LDOWNSAMPLE  =      F    k-point downsampling of WAVECAR
   LCHARG       =      F    write CHGCAR
   LVTOT        =      F    write LOCPOT, total local potential
   LVHAR        =      F    write LOCPOT, Hartree potential only
   LELF         =      F    write electronic localiz. function (ELF)
   LORBIT       =     11    0 simple, 1 ext, 2 COOP (PROOUT), +10 PAW based schemes


 Dipole corrections
   LMONO  =      F    monopole corrections only (constant potential shift)
   LDIPOL =      T    correct potential (dipole corrections)
   IDIPOL =      3    1-x, 2-y, 3-z, 4-all directions 
   EPSILON=  1.0000000 bulk dielectric constant

 Exchange correlation treatment:
   GGA     =    --    GGA type
   LEXCH   =     8    internal setting for exchange type
   VOSKOWN=      0    Vosko Wilk Nusair interpolation
   LHFCALC =     F    Hartree Fock is set to
   LHFONE  =     F    Hartree Fock one center treatment
   AEXX    =    0.0000 exact exchange contribution

 Linear response parameters
   LEPSILON=     F    determine dielectric tensor
   LRPA    =     F    only Hartree local field effects (RPA)
   LNABLA  =     F    use nabla operator in PAW spheres
   LVEL    =     F    velocity operator in full k-point grid
   LINTERFAST=   F  fast interpolation
   KINTER  =     0    interpolate to denser k-point grid
   CSHIFT  =0.1000    complex shift for real part using Kramers Kronig
   OMEGAMAX=  -1.0    maximum frequency
   DEG_THRESHOLD= 0.2000000E-02 threshold for treating states as degnerate
   RTIME   =   -0.100 relaxation time in fs
  (WPLASMAI=    0.000 imaginary part of plasma frequency in eV, 0.658/RTIME)
   DFIELD  = 0.0000000 0.0000000 0.0000000 field for delta impulse in time
 
 Orbital magnetization related:
   ORBITALMAG=     F  switch on orbital magnetization
   LCHIMAG   =     F  perturbation theory with respect to B field
   DQ        =  0.001000  dq finite difference perturbation B field
   LLRAUG    =     F  two centre corrections for induced B field



--------------------------------------------------------------------------------------------------------


 conjugate gradient relaxation of ions
   using selective dynamics as specified on POSCAR
 charge density and potential will be updated during run
 spin polarized calculation
 RMM-DIIS sequential band-by-band and
  variant of blocked Davidson during initial phase
 perform sub-space diagonalisation
    before iterative eigenvector-optimisation
 modified Broyden-mixing scheme, WC =      100.0
 initial mixing is a Kerker type mixing with AMIX =  0.4000 and BMIX =      1.0000
 Hartree-type preconditioning will be used
 using additional bands          150
 real space projection scheme for non local part
 use partial core corrections
 calculate Harris-corrections to forces 
   (improved forces if not selfconsistent)
 use gradient corrections 
 use of overlap-Matrix (Vanderbilt PP)
 Methfessel and Paxton  Order N= 1 SIGMA  =   0.20


--------------------------------------------------------------------------------------------------------


  energy-cutoff  :      400.00
  volume of cell :     3618.13
      direct lattice vectors                 reciprocal lattice vectors
    10.982000000  0.000000000  0.000000000     0.091058095  0.000000000  0.000000000
     0.000000000 10.982000000  0.000000000     0.000000000  0.091058095  0.000000000
     0.000000000  0.000000000 30.000000000     0.000000000  0.000000000  0.033333333

  length of vectors
    10.982000000 10.982000000 30.000000000     0.091058095  0.091058095  0.033333333


 
 k-points in units of 2pi/SCALE and weight: K-Point Grid                            
   0.01138226  0.01138226  0.00000000       0.125
   0.03414679  0.01138226  0.00000000       0.125
  -0.03414679  0.01138226  0.00000000       0.125
  -0.01138226  0.01138226  0.00000000       0.125
   0.01138226  0.03414679  0.00000000       0.125
   0.03414679  0.03414679  0.00000000       0.125
  -0.03414679  0.03414679  0.00000000       0.125
  -0.01138226  0.03414679  0.00000000       0.125
 
 k-points in reciprocal lattice and weights: K-Point Grid                            
   0.12500000  0.12500000  0.00000000       0.125
   0.37500000  0.12500000  0.00000000       0.125
  -0.37500000  0.12500000  0.00000000       0.125
  -0.12500000  0.12500000  0.00000000       0.125
   0.12500000  0.37500000  0.00000000       0.125
   0.37500000  0.37500000  0.00000000       0.125
  -0.37500000  0.37500000  0.00000000       0.125
  -0.12500000  0.37500000  0.00000000       0.125
 
 position of ions in fractional coordinates (direct lattice) 
   0.12499955  0.12499955  0.40293227
   0.12499955  0.37499864  0.40293227
   0.12499955  0.62499774  0.40293227
   0.12499955  0.87499683  0.40293227
   0.37499864  0.12499955  0.40293227
   0.37499864  0.37499864  0.40293227
   0.37499864  0.62499774  0.40293227
   0.37499864  0.87499683  0.40293227
   0.62499774  0.12499955  0.40293227
   0.62499774  0.37499864  0.40293227
   0.62499774  0.62499774  0.40293227
   0.62499774  0.87499683  0.40293227
   0.87499683  0.12499955  0.40293227
   0.87499683  0.37499864  0.40293227
   0.87499683  0.62499774  0.40293227
   0.87499683  0.87499683  0.40293227
   0.99976722  0.00000958  0.46798528
   0.99968481  0.24962805  0.46806930
   0.99977529  0.50046003  0.46802458
   0.99982484  0.75018220  0.46798858
   0.24944005  0.00013965  0.46807982
   0.24939433  0.24970644  0.46804044
   0.24957429  0.50026693  0.46802755
   0.24949707  0.74990737  0.46811999
   0.49995462  0.00011959  0.46797322
   0.49995884  0.24973227  0.46798791
   0.50001183  0.50029535  0.46794413
   0.50000162  0.74998729  0.46800302
   0.74986799  0.00017082  0.46813154
   0.74975035  0.24981851  0.46816279
   0.74985785  0.50025384  0.46808725
   0.74991746  0.75000747  0.46818226
   0.12560035  0.12626951  0.53370403
   0.12371659  0.37507311  0.53292843
   0.12570786  0.62388199  0.53364280
   0.12462413  0.87515673  0.53300395
   0.37468918  0.12461755  0.53303150
   0.37391585  0.37492646  0.53165608
   0.37492618  0.62532963  0.53299260
   0.37490359  0.87505881  0.53284816
   0.62343496  0.12580011  0.53362637
   0.62496609  0.37505344  0.53271089
   0.62361761  0.62437555  0.53357772
   0.62460575  0.87518083  0.53301468
   0.87431527  0.12547121  0.53325931
   0.87474275  0.37509739  0.53315772
   0.87453982  0.62474838  0.53315291
   0.87485487  0.87524325  0.53298270
   0.99943459  0.00004158  0.59818879
   0.99896835  0.24997047  0.59848997
   0.99923528  0.50037888  0.59838841
   0.99959929  0.75037232  0.59816088
   0.24964306  0.99967231  0.59835371
   0.24932160  0.25033782  0.60025525
   0.24954218  0.49975073  0.60022965
   0.24981707  0.75044682  0.59814392
   0.49933048  0.99944642  0.59837848
   0.49724328  0.25076954  0.60036761
   0.49751591  0.49932013  0.60022390
   0.49954957  0.75065187  0.59838902
   0.74955280  0.99964927  0.59829628
   0.74914908  0.24901754  0.59961093
   0.74961654  0.50158158  0.59945426
   0.74977836  0.75075918  0.59810790
   0.36302446  0.37480840  0.63490402
   0.36184625  0.37460793  0.67601728
   0.62553036  0.36764344  0.69619493
   0.65376849  0.33684016  0.72479672
   0.53655709  0.36967276  0.69860999
   0.63903331  0.37656765  0.60618491
 
 position of ions in cartesian coordinates  (Angst):
   1.37274503  1.37274503 12.08796804
   1.37274503  4.11823509 12.08796804
   1.37274503  6.86372514 12.08796804
   1.37274503  9.60921520 12.08796804
   4.11823509  1.37274503 12.08796804
   4.11823509  4.11823509 12.08796804
   4.11823509  6.86372514 12.08796804
   4.11823509  9.60921520 12.08796804
   6.86372514  1.37274503 12.08796804
   6.86372514  4.11823509 12.08796804
   6.86372514  6.86372514 12.08796804
   6.86372514  9.60921520 12.08796804
   9.60921520  1.37274503 12.08796804
   9.60921520  4.11823509 12.08796804
   9.60921520  6.86372514 12.08796804
   9.60921520  9.60921520 12.08796804
  10.97944360  0.00010524 14.03955827
  10.97853856  2.74141530 14.04207888
  10.97953227  5.49605203 14.04073740
  10.98007638  8.23850096 14.03965749
   2.73935060  0.00153360 14.04239470
   2.73884851  2.74227612 14.04121333
   2.74082484  5.49393147 14.04082641
   2.73997681  8.23548276 14.04359962
   5.49050169  0.00131333 14.03919666
   5.49054794  2.74255980 14.03963733
   5.49112987  5.49424348 14.03832397
   5.49101783  8.23636039 14.04009068
   8.23505030  0.00187598 14.04394619
   8.23375831  2.74350686 14.04488381
   8.23493896  5.49378772 14.04261758
   8.23559351  8.23658204 14.04546774
   1.37934301  1.38669181 16.01112104
   1.35865564  4.11905288 15.98785293
   1.38052374  6.85147196 16.00928387
   1.36862219  9.61097123 15.99011840
   4.11483652  1.36854994 15.99094495
   4.10634387  4.11744234 15.94968250
   4.11743934  6.86737004 15.98977808
   4.11719125  9.60989581 15.98544495
   6.84656271  1.38153677 16.00879104
   6.86337762  4.11883683 15.98132655
   6.84856862  6.85689230 16.00733162
   6.85942031  9.61123588 15.99044049
   9.60173031  1.37792488 15.99777924
   9.60642483  4.11931950 15.99473168
   9.60419632  6.86098669 15.99458735
   9.60765621  9.61192141 15.98948097
  10.97579061  0.00045667 17.94566374
  10.97067038  2.74517565 17.95469904
  10.97360187  5.49516086 17.95165218
  10.97759940  8.24058882 17.94482628
   2.74158005 10.97840126 17.95061121
   2.73804983  2.74920990 18.00765738
   2.74047217  5.48826255 18.00688959
   2.74349103  8.24140693 17.94431760
   5.48364737 10.97592056 17.95135451
   5.46072565  2.75395114 18.01102837
   5.46371974  5.48353368 18.00671698
   5.48605335  8.24365880 17.95167046
   8.23158887 10.97814831 17.94888837
   8.22715520  2.73471061 17.98832794
   8.23228882  5.50836893 17.98362781
   8.23406592  8.24483732 17.94323685
   3.98673463  4.11614584 19.04712064
   3.97379547  4.11394429 20.28051855
   6.86957439  4.03746030 20.88584786
   7.17968558  3.69917862 21.74390157
   5.89246992  4.05974624 20.95829964
   7.01786376  4.13546596 18.18554725
 


--------------------------------------------------------------------------------------------------------


 k-point  1 :   0.1250 0.1250 0.0000  plane waves:   65671
 k-point  2 :   0.3750 0.1250 0.0000  plane waves:   65719
 k-point  3 :  -0.3750 0.1250 0.0000  plane waves:   65719
 k-point  4 :  -0.1250 0.1250 0.0000  plane waves:   65671
 k-point  5 :   0.1250 0.3750 0.0000  plane waves:   65719
 k-point  6 :   0.3750 0.3750 0.0000  plane waves:   65776
 k-point  7 :  -0.3750 0.3750 0.0000  plane waves:   65776
 k-point  8 :  -0.1250 0.3750 0.0000  plane waves:   65719

 maximum and minimum number of plane-waves per node :     65776    65671

 maximum number of plane-waves:     65776
 maximum index in each direction: 
   IXMAX=   18   IYMAX=   17   IZMAX=   48
   IXMIN=  -18   IYMIN=  -18   IZMIN=  -48


 serial   3D FFT for wavefunctions
 parallel 3D FFT for charge:
    minimum data exchange during FFTs selected (reduces bandwidth)


 total amount of memory used by VASP MPI-rank0   269681. kBytes
=======================================================================

   base      :      30000. kBytes
   nonlr-proj:      51597. kBytes
   fftplans  :       7679. kBytes
   grid      :      92335. kBytes
   one-center:       2177. kBytes
   wavefun   :      85893. kBytes
 
     INWAV:  cpu time    0.0001: real time    0.0146
 Broyden mixing: mesh for mixing (old mesh)
   NGX = 35   NGY = 35   NGZ = 97
  (NGX  =144   NGY  =144   NGZ  =392)
  gives a total of 118825 points

 initial charge density was supplied:
 charge density of overlapping atoms calculated
 number of electron     660.0000000 magnetization      70.0000000
 keeping initial charge density in first step


--------------------------------------------------------------------------------------------------------


 Maximum index for non-local projection operator         5583
 Maximum index for augmentation-charges          679 (set IRDMAX)


--------------------------------------------------------------------------------------------------------


 First call to EWALD:  gamma=   0.115
 Maximum number of real-space cells 4x 4x 2
 Maximum number of reciprocal cells 2x 2x 5

    FEWALD:  cpu time    0.0170: real time    0.0130


--------------------------------------- Iteration      1(   1)  ---------------------------------------


    POTLOK:  cpu time    0.5452: real time    0.5105
    SETDIJ:  cpu time    0.1606: real time    0.1024
     EDDAV:  cpu time   97.6099: real time   49.0725
       DOS:  cpu time    0.1094: real time    0.0956
    --------------------------------------------
      LOOP:  cpu time   98.4252: real time   49.7810

 eigenvalue-minimisations  : 15360
 total energy-change (2. order) : 0.3691986E+04  (-0.2465332E+05)
 number of electron     660.0000000 magnetization      70.0000000
 augmentation part      660.0000000 magnetization      70.0000000

 DIPCOR: dipole corrections for dipol
 direction  3 min pos     1,
 dipolmoment           0.000000      0.000000     -0.000168 electrons x Angstroem
 Tr[quadrupol]    -13832.864881

 energy correction for charged system         0.000000 eV
 dipol+quadrupol energy correction           -0.000000 eV
 added-field ion interaction          0.000986 eV  (added to PSCEN)


 Free energy of the ion-electron system (eV)
  ---------------------------------------------------
  alpha Z        PSCENC =       774.60493380
  Ewald energy   TEWEN  =    384248.10007507
  -Hartree energ DENC   =   -437625.75013051
  -exchange      EXHF   =         0.00000000
  -V(xc)+E(xc)   XCENC  =     -1794.96407995
  PAW double counting   =     52528.45871130   -48551.45505577
  entropy T*S    EENTRO =        -0.00237134
  eigenvalues    EBANDS =      1122.94724221
  atomic energy  EATOM  =     52990.04641755
  Solvation  Ediel_sol  =         0.00000000
  ---------------------------------------------------
  free energy    TOTEN  =      3691.98574236 eV

  energy without entropy =     3691.98811370  energy(sigma->0) =     3691.98653281


--------------------------------------------------------------------------------------------------------




--------------------------------------- Iteration      1(   2)  ---------------------------------------


     EDDAV:  cpu time  113.7882: real time   57.1334
       DOS:  cpu time    0.0050: real time    0.0025
    --------------------------------------------
      LOOP:  cpu time  113.7932: real time   57.1360

 eigenvalue-minimisations  : 17856
 total energy-change (2. order) :-0.3862735E+04  (-0.3642445E+04)
 number of electron     660.0000000 magnetization      70.0000000
 augmentation part      660.0000000 magnetization      70.0000000

 DIPCOR: dipole corrections for dipol
 direction  3 min pos     1,
 dipolmoment           0.000000      0.000000     -0.000168 electrons x Angstroem
 Tr[quadrupol]    -13832.864881

 energy correction for charged system         0.000000 eV
 dipol+quadrupol energy correction           -0.000000 eV
 added-field ion interaction          0.000986 eV  (added to PSCEN)


 Free energy of the ion-electron system (eV)
  ---------------------------------------------------
  alpha Z        PSCENC =       774.60493380
  Ewald energy   TEWEN  =    384248.10007507
  -Hartree energ DENC   =   -437625.75013051
  -exchange      EXHF   =         0.00000000
  -V(xc)+E(xc)   XCENC  =     -1794.96407995
  PAW double counting   =     52528.45871130   -48551.45505577
  entropy T*S    EENTRO =        -0.00411381
  eigenvalues    EBANDS =     -2739.78646650
  atomic energy  EATOM  =     52990.04641755
  Solvation  Ediel_sol  =         0.00000000
  ---------------------------------------------------
  free energy    TOTEN  =      -170.74970882 eV

  energy without entropy =     -170.74559501  energy(sigma->0) =     -170.74833755


--------------------------------------------------------------------------------------------------------




--------------------------------------- Iteration      1(   3)  ---------------------------------------


     EDDAV:  cpu time  116.1455: real time   58.2394
       DOS:  cpu time    0.0051: real time    0.0025
    --------------------------------------------
      LOOP:  cpu time  116.1505: real time   58.2419

 eigenvalue-minimisations  : 18816
 total energy-change (2. order) :-0.1790763E+03  (-0.1737288E+03)
 number of electron     660.0000000 magnetization      70.0000000
 augmentation part      660.0000000 magnetization      70.0000000

 DIPCOR: dipole corrections for dipol
 direction  3 min pos     1,
 dipolmoment           0.000000      0.000000     -0.000168 electrons x Angstroem
 Tr[quadrupol]    -13832.864881

 energy correction for charged system         0.000000 eV
 dipol+quadrupol energy correction           -0.000000 eV
 added-field ion interaction          0.000986 eV  (added to PSCEN)


 Free energy of the ion-electron system (eV)
  ---------------------------------------------------
  alpha Z        PSCENC =       774.60493380
  Ewald energy   TEWEN  =    384248.10007507
  -Hartree energ DENC   =   -437625.75013051
  -exchange      EXHF   =         0.00000000
  -V(xc)+E(xc)   XCENC  =     -1794.96407995
  PAW double counting   =     52528.45871130   -48551.45505577
  entropy T*S    EENTRO =         0.15655981
  eigenvalues    EBANDS =     -2919.02346685
  atomic energy  EATOM  =     52990.04641755
  Solvation  Ediel_sol  =         0.00000000
  ---------------------------------------------------
  free energy    TOTEN  =      -349.82603555 eV

  energy without entropy =     -349.98259536  energy(sigma->0) =     -349.87822215


--------------------------------------------------------------------------------------------------------




--------------------------------------- Iteration      1(   4)  ---------------------------------------


     EDDAV:  cpu time  103.7167: real time   51.9958
       DOS:  cpu time    0.0053: real time    0.0026
    --------------------------------------------
      LOOP:  cpu time  103.7220: real time   51.9985

 eigenvalue-minimisations  : 16992
 total energy-change (2. order) :-0.3064321E+01  (-0.3059296E+01)
 number of electron     660.0000000 magnetization      70.0000000
 augmentation part      660.0000000 magnetization      70.0000000

 DIPCOR: dipole corrections for dipol
 direction  3 min pos     1,
 dipolmoment           0.000000      0.000000     -0.000168 electrons x Angstroem
 Tr[quadrupol]    -13832.864881

 energy correction for charged system         0.000000 eV
 dipol+quadrupol energy correction           -0.000000 eV
 added-field ion interaction          0.000986 eV  (added to PSCEN)


 Free energy of the ion-electron system (eV)
  ---------------------------------------------------
  alpha Z        PSCENC =       774.60493380
  Ewald energy   TEWEN  =    384248.10007507
  -Hartree energ DENC   =   -437625.75013051
  -exchange      EXHF   =         0.00000000
  -V(xc)+E(xc)   XCENC  =     -1794.96407995
  PAW double counting   =     52528.45871130   -48551.45505577
  entropy T*S    EENTRO =         0.15794458
  eigenvalues    EBANDS =     -2922.08917246
  atomic energy  EATOM  =     52990.04641755
  Solvation  Ediel_sol  =         0.00000000
  ---------------------------------------------------
  free energy    TOTEN  =      -352.89035638 eV

  energy without entropy =     -353.04830097  energy(sigma->0) =     -352.94300458


--------------------------------------------------------------------------------------------------------




--------------------------------------- Iteration      1(   5)  ---------------------------------------


     EDDAV:  cpu time  136.2375: real time   68.2861
       DOS:  cpu time    0.0054: real time    0.0027
    CHARGE:  cpu time    2.8035: real time    2.4825
    MIXING:  cpu time    0.0694: real time    0.0545
    --------------------------------------------
      LOOP:  cpu time  139.1160: real time   70.8258

 eigenvalue-minimisations  : 21984
 total energy-change (2. order) :-0.1341758E+00  (-0.1341680E+00)
 number of electron     659.9999458 magnetization      67.4085936
 augmentation part      261.1103414 magnetization      53.5468120

 DIPCOR: dipole corrections for dipol
 direction  3 min pos     1,
 dipolmoment           0.000000      0.000000     -0.000168 electrons x Angstroem
 Tr[quadrupol]    -13832.864881

 energy correction for charged system         0.000000 eV
 dipol+quadrupol energy correction           -0.000000 eV
 added-field ion interaction          0.000986 eV  (added to PSCEN)


 Broyden mixing:
  rms(total) = 0.59632E+01    rms(broyden)= 0.59624E+01
  rms(prec ) = 0.60199E+01
  weight for this iteration     100.00

 Free energy of the ion-electron system (eV)
  ---------------------------------------------------
  alpha Z        PSCENC =       774.60493380
  Ewald energy   TEWEN  =    384248.10007507
  -Hartree energ DENC   =   -437625.75013051
  -exchange      EXHF   =         0.00000000
  -V(xc)+E(xc)   XCENC  =     -1794.96407995
  PAW double counting   =     52528.45871130   -48551.45505577
  entropy T*S    EENTRO =         0.15795575
  eigenvalues    EBANDS =     -2922.22335946
  atomic energy  EATOM  =     52990.04641755
  Solvation  Ediel_sol  =         0.00000000
  ---------------------------------------------------
  free energy    TOTEN  =      -353.02453222 eV

  energy without entropy =     -353.18248798  energy(sigma->0) =     -353.07718414


--------------------------------------------------------------------------------------------------------




--------------------------------------- Iteration      1(   6)  ---------------------------------------


    POTLOK:  cpu time    0.3698: real time    0.3076
    SETDIJ:  cpu time    0.0296: real time    0.0182
    EDDIAG:  cpu time   16.6936: real time    8.3870
  RMM-DIIS:  cpu time   43.9191: real time   22.1397
    ORTHCH:  cpu time    4.1646: real time    2.0977
       DOS:  cpu time    0.0082: real time    0.0041
    CHARGE:  cpu time    2.8534: real time    2.5305
    MIXING:  cpu time    0.0132: real time    0.0077
    --------------------------------------------
      LOOP:  cpu time   68.0515: real time   35.4925

 eigenvalue-minimisations  : 15400
 total energy-change (2. order) : 0.3518665E+02  (-0.8251320E+01)
 number of electron     659.9999430 magnetization      64.3045266
 augmentation part      271.8621294 magnetization      48.8631895

 DIPCOR: dipole corrections for dipol
 direction  3 min pos     1,
 dipolmoment           0.000000      0.000000      0.076063 electrons x Angstroem
 Tr[quadrupol]    -13838.353958

 energy correction for charged system         0.000000 eV
 dipol+quadrupol energy correction           -0.000145 eV
 added-field ion interaction         -0.447126 eV  (added to PSCEN)


 Broyden mixing:
  rms(total) = 0.33299E+01    rms(broyden)= 0.33290E+01
  rms(prec ) = 0.33799E+01
  weight for this iteration     100.00

 eigenvalues of (default mixing * dielectric matrix)
  average eigenvalue GAMMA=   1.0238
  1.0238

 Free energy of the ion-electron system (eV)
  ---------------------------------------------------
  alpha Z        PSCENC =       774.15667771
  Ewald energy   TEWEN  =    384248.10007507
  -Hartree energ DENC   =   -437449.35001093
  -exchange      EXHF   =         0.00000000
  -V(xc)+E(xc)   XCENC  =     -1789.88631378
  PAW double counting   =     56414.43852753   -52514.11114205
  entropy T*S    EENTRO =         0.09806893
  eigenvalues    EBANDS =     -2991.33018343
  atomic energy  EATOM  =     52990.04641755
  Solvation  Ediel_sol  =         0.00000000
  ---------------------------------------------------
  free energy    TOTEN  =      -317.83788340 eV

  energy without entropy =     -317.93595233  energy(sigma->0) =     -317.87057305


--------------------------------------------------------------------------------------------------------




--------------------------------------- Iteration      1(   7)  ---------------------------------------


    POTLOK:  cpu time    0.4851: real time    0.3331
    SETDIJ:  cpu time    0.0345: real time    0.0209
    EDDIAG:  cpu time   17.1516: real time    9.9379
  RMM-DIIS:  cpu time   43.9491: real time   22.2461
    ORTHCH:  cpu time    4.1520: real time    2.0908
       DOS:  cpu time    0.0080: real time    0.0040
    CHARGE:  cpu time    2.9781: real time    2.6577
    MIXING:  cpu time    0.0088: real time    0.0044
    --------------------------------------------
      LOOP:  cpu time   68.7673: real time   37.2950

 eigenvalue-minimisations  : 15404
 total energy-change (2. order) :-0.4367086E+01  (-0.3390406E+01)
 number of electron     659.9999423 magnetization      62.5728379
 augmentation part      269.9898312 magnetization      47.8564712

 DIPCOR: dipole corrections for dipol
 direction  3 min pos     1,
 dipolmoment           0.000000      0.000000     -0.116572 electrons x Angstroem
 Tr[quadrupol]    -13849.119123

 energy correction for charged system         0.000000 eV
 dipol+quadrupol energy correction           -0.000340 eV
 added-field ion interaction          0.685252 eV  (added to PSCEN)


 Broyden mixing:
  rms(total) = 0.39969E+01    rms(broyden)= 0.39955E+01
  rms(prec ) = 0.44737E+01
  weight for this iteration     100.00

 eigenvalues of (default mixing * dielectric matrix)
  average eigenvalue GAMMA=   0.8602
  1.3032  0.4173

 Free energy of the ion-electron system (eV)
  ---------------------------------------------------
  alpha Z        PSCENC =       775.28886008
  Ewald energy   TEWEN  =    384248.10007507
  -Hartree energ DENC   =   -437851.26361676
  -exchange      EXHF   =         0.00000000
  -V(xc)+E(xc)   XCENC  =     -1787.05829614
  PAW double counting   =     59360.98358176   -55491.30628679
  entropy T*S    EENTRO =        -0.01227777
  eigenvalues    EBANDS =     -2566.98342636
  atomic energy  EATOM  =     52990.04641755
  Solvation  Ediel_sol  =         0.00000000
  ---------------------------------------------------
  free energy    TOTEN  =      -322.20496935 eV

  energy without entropy =     -322.19269158  energy(sigma->0) =     -322.20087676


--------------------------------------------------------------------------------------------------------




--------------------------------------- Iteration      1(   8)  ---------------------------------------


    POTLOK:  cpu time    0.4429: real time    0.2986
    SETDIJ:  cpu time    0.0257: real time    0.0165
    EDDIAG:  cpu time   16.7979: real time    8.4192
  RMM-DIIS:  cpu time   43.0996: real time   21.6057
    ORTHCH:  cpu time    4.1719: real time    2.0910
       DOS:  cpu time    0.0079: real time    0.0039
    CHARGE:  cpu time    3.1083: real time    2.7868
    MIXING:  cpu time    0.0094: real time    0.0047
    --------------------------------------------
      LOOP:  cpu time   67.6635: real time   35.2264

 eigenvalue-minimisations  : 15360
 total energy-change (2. order) :-0.1249957E+02  (-0.3023815E+01)
 number of electron     659.9999451 magnetization      61.3534748
 augmentation part      269.3746622 magnetization      46.3684775

 DIPCOR: dipole corrections for dipol
 direction  3 min pos     1,
 dipolmoment           0.000000      0.000000     -1.459083 electrons x Angstroem
 Tr[quadrupol]    -13849.271909

 energy correction for charged system         0.000000 eV
 dipol+quadrupol energy correction           -0.053236 eV
 added-field ion interaction          8.577046 eV  (added to PSCEN)


 Broyden mixing:
  rms(total) = 0.47627E+01    rms(broyden)= 0.47623E+01
  rms(prec ) = 0.60645E+01
  weight for this iteration     100.00

 eigenvalues of (default mixing * dielectric matrix)
  average eigenvalue GAMMA=   0.7520
  1.5306  0.5663  0.1592

 Free energy of the ion-electron system (eV)
  ---------------------------------------------------
  alpha Z        PSCENC =       783.12775772
  Ewald energy   TEWEN  =    384248.10007507
  -Hartree energ DENC   =   -437822.24738040
  -exchange      EXHF   =         0.00000000
  -V(xc)+E(xc)   XCENC  =     -1782.69613376
  PAW double counting   =     60415.83764990   -56559.28411893
  entropy T*S    EENTRO =        -0.08867562
  eigenvalues    EBANDS =     -2607.50012962
  atomic energy  EATOM  =     52990.04641755
  Solvation  Ediel_sol  =         0.00000000
  ---------------------------------------------------
  free energy    TOTEN  =      -334.70453809 eV

  energy without entropy =     -334.61586247  energy(sigma->0) =     -334.67497955


--------------------------------------------------------------------------------------------------------




--------------------------------------- Iteration      1(   9)  ---------------------------------------


    POTLOK:  cpu time    0.4361: real time    0.3104
    SETDIJ:  cpu time    0.0261: real time    0.0166
    EDDIAG:  cpu time   16.7761: real time    8.4082
  RMM-DIIS:  cpu time   43.0243: real time   21.5649
    ORTHCH:  cpu time    4.1707: real time    2.0904
       DOS:  cpu time    0.0081: real time    0.0041
    CHARGE:  cpu time    3.1982: real time    2.8740
    MIXING:  cpu time    0.0111: real time    0.0056
    --------------------------------------------
      LOOP:  cpu time   67.6507: real time   35.2742

 eigenvalue-minimisations  : 15370
 total energy-change (2. order) : 0.8942124E+01  (-0.1236036E+01)
 number of electron     659.9999400 magnetization      59.7927758
 augmentation part      270.6488062 magnetization      45.5805988

 DIPCOR: dipole corrections for dipol
 direction  3 min pos     1,
 dipolmoment           0.000000      0.000000      0.588305 electrons x Angstroem
 Tr[quadrupol]    -13850.274571

 energy correction for charged system         0.000000 eV
 dipol+quadrupol energy correction           -0.008655 eV
 added-field ion interaction         -3.458283 eV  (added to PSCEN)


 Broyden mixing:
  rms(total) = 0.49490E+01    rms(broyden)= 0.49482E+01
  rms(prec ) = 0.60704E+01
  weight for this iteration     100.00

 eigenvalues of (default mixing * dielectric matrix)
  average eigenvalue GAMMA=   0.6998
  1.8128  0.6847  0.2023  0.0996

 Free energy of the ion-electron system (eV)
  ---------------------------------------------------
  alpha Z        PSCENC =       771.13701039
  Ewald energy   TEWEN  =    384248.10007507
  -Hartree energ DENC   =   -437874.45897526
  -exchange      EXHF   =         0.00000000
  -V(xc)+E(xc)   XCENC  =     -1779.93608802
  PAW double counting   =     61001.81111394   -57153.94394170
  entropy T*S    EENTRO =        -0.04185244
  eigenvalues    EBANDS =     -2528.47617369
  atomic energy  EATOM  =     52990.04641755
  Solvation  Ediel_sol  =         0.00000000
  ---------------------------------------------------
  free energy    TOTEN  =      -325.76241416 eV

  energy without entropy =     -325.72056172  energy(sigma->0) =     -325.74846335


--------------------------------------------------------------------------------------------------------




--------------------------------------- Iteration      1(  10)  ---------------------------------------


    POTLOK:  cpu time    0.4583: real time    0.2984
    SETDIJ:  cpu time    0.0264: real time    0.0170
    EDDIAG:  cpu time   16.7283: real time    8.3843
  RMM-DIIS:  cpu time   43.1652: real time   22.2202
    ORTHCH:  cpu time    4.2314: real time    2.1309
       DOS:  cpu time    0.0080: real time    0.0040
    CHARGE:  cpu time    2.8666: real time    2.5446
    MIXING:  cpu time    0.0102: real time    0.0051
    --------------------------------------------
      LOOP:  cpu time   67.4943: real time   35.6044

 eigenvalue-minimisations  : 15392
 total energy-change (2. order) : 0.2442228E+02  (-0.8859938E+00)
 number of electron     659.9999429 magnetization      58.4226639
 augmentation part      271.9706850 magnetization      41.4932636

 DIPCOR: dipole corrections for dipol
 direction  3 min pos     1,
 dipolmoment           0.000000      0.000000     -0.342304 electrons x Angstroem
 Tr[quadrupol]    -13851.906969

 energy correction for charged system         0.000000 eV
 dipol+quadrupol energy correction           -0.002930 eV
 added-field ion interaction          2.012196 eV  (added to PSCEN)


 Broyden mixing:
  rms(total) = 0.23460E+01    rms(broyden)= 0.23454E+01
  rms(prec ) = 0.25880E+01
  weight for this iteration     100.00

 eigenvalues of (default mixing * dielectric matrix)
  average eigenvalue GAMMA=   0.6621
  1.9862  0.7256  0.2940  0.2120  0.0926

 Free energy of the ion-electron system (eV)
  ---------------------------------------------------
  alpha Z        PSCENC =       776.61321362
  Ewald energy   TEWEN  =    384248.10007507
  -Hartree energ DENC   =   -437926.61568898
  -exchange      EXHF   =         0.00000000
  -V(xc)+E(xc)   XCENC  =     -1777.02929615
  PAW double counting   =     61646.69980064   -57808.33912371
  entropy T*S    EENTRO =        -0.09809284
  eigenvalues    EBANDS =     -2450.71743549
  atomic energy  EATOM  =     52990.04641755
  Solvation  Ediel_sol  =         0.00000000
  ---------------------------------------------------
  free energy    TOTEN  =      -301.34013030 eV

  energy without entropy =     -301.24203746  energy(sigma->0) =     -301.30743268


--------------------------------------------------------------------------------------------------------




--------------------------------------- Iteration      1(  11)  ---------------------------------------


    POTLOK:  cpu time    0.4457: real time    0.2800
    SETDIJ:  cpu time    0.0278: real time    0.0183
    EDDIAG:  cpu time   16.7390: real time    8.3902
  RMM-DIIS:  cpu time   43.8324: real time   22.1971
    ORTHCH:  cpu time    4.1305: real time    2.0812
       DOS:  cpu time    0.0078: real time    0.0039
    CHARGE:  cpu time    2.6244: real time    2.3034
    MIXING:  cpu time    0.0107: real time    0.0053
    --------------------------------------------
      LOOP:  cpu time   67.8183: real time   35.2796

 eigenvalue-minimisations  : 15404
 total energy-change (2. order) : 0.3880463E+01  (-0.7130482E+00)
 number of electron     659.9999435 magnetization      56.7150677
 augmentation part      272.5543338 magnetization      40.5509199

 DIPCOR: dipole corrections for dipol
 direction  3 min pos     1,
 dipolmoment           0.000000      0.000000     -0.199846 electrons x Angstroem
 Tr[quadrupol]    -13851.628896

 energy correction for charged system         0.000000 eV
 dipol+quadrupol energy correction           -0.000999 eV
 added-field ion interaction          1.174770 eV  (added to PSCEN)


 Broyden mixing:
  rms(total) = 0.19583E+01    rms(broyden)= 0.19581E+01
  rms(prec ) = 0.21435E+01
  weight for this iteration     100.00

 eigenvalues of (default mixing * dielectric matrix)
  average eigenvalue GAMMA=   0.6395
  2.0940  0.7882  0.3438  0.3438  0.1733  0.0937

 Free energy of the ion-electron system (eV)
  ---------------------------------------------------
  alpha Z        PSCENC =       775.77771969
  Ewald energy   TEWEN  =    384248.10007507
  -Hartree energ DENC   =   -437911.25142902
  -exchange      EXHF   =         0.00000000
  -V(xc)+E(xc)   XCENC  =     -1777.47766563
  PAW double counting   =     62004.41876656   -58169.58274642
  entropy T*S    EENTRO =        -0.09640643
  eigenvalues    EBANDS =     -2457.39439883
  atomic energy  EATOM  =     52990.04641755
  Solvation  Ediel_sol  =         0.00000000
  ---------------------------------------------------
  free energy    TOTEN  =      -297.45966746 eV

  energy without entropy =     -297.36326102  energy(sigma->0) =     -297.42753198


--------------------------------------------------------------------------------------------------------




--------------------------------------- Iteration      1(  12)  ---------------------------------------


    POTLOK:  cpu time    0.4740: real time    0.3100
    SETDIJ:  cpu time    0.0267: real time    0.0170
    EDDIAG:  cpu time   16.6587: real time    8.3500
  RMM-DIIS:  cpu time   44.0395: real time   22.2737
    ORTHCH:  cpu time    4.1856: real time    2.1088
       DOS:  cpu time    0.0078: real time    0.0039
    CHARGE:  cpu time    2.8311: real time    2.5101
    MIXING:  cpu time    0.0103: real time    0.0052
    --------------------------------------------
      LOOP:  cpu time   68.2337: real time   35.5787

 eigenvalue-minimisations  : 15402
 total energy-change (2. order) :-0.1911124E+00  (-0.3331228E+00)
 number of electron     659.9999438 magnetization      55.5434071
 augmentation part      271.7546239 magnetization      39.0963055

 DIPCOR: dipole corrections for dipol
 direction  3 min pos     1,
 dipolmoment           0.000000      0.000000     -0.303212 electrons x Angstroem
 Tr[quadrupol]    -13853.756362

 energy correction for charged system         0.000000 eV
 dipol+quadrupol energy correction           -0.002299 eV
 added-field ion interaction          1.782397 eV  (added to PSCEN)


 Broyden mixing:
  rms(total) = 0.17283E+01    rms(broyden)= 0.17281E+01
  rms(prec ) = 0.19266E+01
  weight for this iteration     100.00

 eigenvalues of (default mixing * dielectric matrix)
  average eigenvalue GAMMA=   0.6118
  2.1491  0.8376  0.4113  0.4113  0.0932  0.2075  0.1722

 Free energy of the ion-electron system (eV)
  ---------------------------------------------------
  alpha Z        PSCENC =       776.38404577
  Ewald energy   TEWEN  =    384248.10007507
  -Hartree energ DENC   =   -438002.09282786
  -exchange      EXHF   =         0.00000000
  -V(xc)+E(xc)   XCENC  =     -1777.68390310
  PAW double counting   =     62316.61284596   -58483.10339520
  entropy T*S    EENTRO =        -0.06589350
  eigenvalues    EBANDS =     -2365.84814452
  atomic energy  EATOM  =     52990.04641755
  Solvation  Ediel_sol  =         0.00000000
  ---------------------------------------------------
  free energy    TOTEN  =      -297.65077984 eV

  energy without entropy =     -297.58488633  energy(sigma->0) =     -297.62881533


--------------------------------------------------------------------------------------------------------




--------------------------------------- Iteration      1(  13)  ---------------------------------------


    POTLOK:  cpu time    0.4433: real time    0.3154
    SETDIJ:  cpu time    0.0262: real time    0.0167
    EDDIAG:  cpu time   16.6339: real time    8.3385
  RMM-DIIS:  cpu time   43.9657: real time   22.2202
    ORTHCH:  cpu time    4.1333: real time    2.0818
       DOS:  cpu time    0.0081: real time    0.0040
    CHARGE:  cpu time    3.3132: real time    2.9925
    MIXING:  cpu time    0.0110: real time    0.0055
    --------------------------------------------
      LOOP:  cpu time   68.5347: real time   35.9748

 eigenvalue-minimisations  : 15400
 total energy-change (2. order) :-0.6281678E+00  (-0.1668829E+00)
 number of electron     659.9999434 magnetization      54.4528690
 augmentation part      271.3154679 magnetization      37.5480358

 DIPCOR: dipole corrections for dipol
 direction  3 min pos     1,
 dipolmoment           0.000000      0.000000     -0.112710 electrons x Angstroem
 Tr[quadrupol]    -13855.358425

 energy correction for charged system         0.000000 eV
 dipol+quadrupol energy correction           -0.000318 eV
 added-field ion interaction          0.662550 eV  (added to PSCEN)


 Broyden mixing:
  rms(total) = 0.10708E+01    rms(broyden)= 0.10707E+01
  rms(prec ) = 0.11409E+01
  weight for this iteration     100.00

 eigenvalues of (default mixing * dielectric matrix)
  average eigenvalue GAMMA=   0.5912
  2.0996  0.7403  0.5865  0.5865  0.2712  0.0930  0.1761  0.1761

 Free energy of the ion-electron system (eV)
  ---------------------------------------------------
  alpha Z        PSCENC =       775.26618010
  Ewald energy   TEWEN  =    384248.10007507
  -Hartree energ DENC   =   -438071.39796220
  -exchange      EXHF   =         0.00000000
  -V(xc)+E(xc)   XCENC  =     -1779.19668010
  PAW double counting   =     62447.14705787   -58614.03593977
  entropy T*S    EENTRO =        -0.03237957
  eigenvalues    EBANDS =     -2294.17571655
  atomic energy  EATOM  =     52990.04641755
  Solvation  Ediel_sol  =         0.00000000
  ---------------------------------------------------
  free energy    TOTEN  =      -298.27894761 eV

  energy without entropy =     -298.24656804  energy(sigma->0) =     -298.26815442


--------------------------------------------------------------------------------------------------------




--------------------------------------- Iteration      1(  14)  ---------------------------------------


    POTLOK:  cpu time    0.4641: real time    0.3155
    SETDIJ:  cpu time    0.0262: real time    0.0166
    EDDIAG:  cpu time   16.5473: real time    8.2936
  RMM-DIIS:  cpu time   44.0960: real time   22.3271
    ORTHCH:  cpu time    4.1324: real time    2.0814
       DOS:  cpu time    0.0082: real time    0.0041
    CHARGE:  cpu time    3.0089: real time    2.6887
    MIXING:  cpu time    0.0111: real time    0.0055
    --------------------------------------------
      LOOP:  cpu time   68.2941: real time   35.7325

 eigenvalue-minimisations  : 15401
 total energy-change (2. order) :-0.3460029E+01  (-0.1170417E+00)
 number of electron     659.9999432 magnetization      52.5989586
 augmentation part      271.5163064 magnetization      36.3621895

 DIPCOR: dipole corrections for dipol
 direction  3 min pos     1,
 dipolmoment           0.000000      0.000000     -0.043075 electrons x Angstroem
 Tr[quadrupol]    -13855.304533

 energy correction for charged system         0.000000 eV
 dipol+quadrupol energy correction           -0.000046 eV
 added-field ion interaction          0.253211 eV  (added to PSCEN)


 Broyden mixing:
[...]
   0.203E+02 0.250E+02 -.804E+03   -.202E+02 -.248E+02 0.804E+03   -.162E+00 -.160E+00 -.195E+00   0.232E-01 -.240E-01 0.183E-01
   0.264E+02 -.412E+00 -.766E+03   -.266E+02 0.415E+00 0.766E+03   0.157E+00 0.184E-02 0.185E+00   0.246E-01 -.348E-02 0.206E-01
   0.203E+02 -.250E+02 -.803E+03   -.201E+02 0.249E+02 0.803E+03   -.161E+00 0.164E+00 -.191E+00   0.248E-01 0.233E-01 0.124E-01
   0.110E+02 0.556E+00 -.804E+03   -.110E+02 -.557E+00 0.804E+03   -.178E-01 -.897E-02 0.477E-01   0.240E-01 0.406E-02 0.105E-01
   0.632E+01 0.338E+02 -.767E+03   -.631E+01 -.339E+02 0.767E+03   -.100E-01 0.896E-01 0.883E-01   0.117E-01 -.245E-01 0.103E-01
   0.904E+01 -.460E+00 -.677E+03   -.911E+01 0.461E+00 0.676E+03   0.445E-01 -.216E-03 0.137E+01   0.126E-01 -.783E-03 0.126E-01
   0.601E+01 -.338E+02 -.767E+03   -.602E+01 0.339E+02 0.767E+03   -.693E-02 -.861E-01 0.838E-01   0.150E-01 0.239E-01 0.713E-02
   0.340E+01 0.619E+00 -.792E+03   -.342E+01 -.620E+00 0.792E+03   0.242E-01 -.394E-02 0.605E-01   0.143E-01 0.161E-02 0.550E-02
   -.189E+02 0.289E+02 -.791E+03   0.188E+02 -.289E+02 0.791E+03   0.124E+00 -.437E-02 -.622E-01   -.239E-01 -.249E-01 0.150E-01
   -.269E+02 -.579E+00 -.727E+03   0.270E+02 0.566E+00 0.726E+03   -.277E-01 0.109E-01 0.111E+01   -.246E-01 -.571E-06 0.159E-01
   -.190E+02 -.290E+02 -.790E+03   0.189E+02 0.289E+02 0.790E+03   0.129E+00 0.158E-02 -.462E-01   -.248E-01 0.244E-01 0.123E-01
   -.891E+01 0.791E+00 -.797E+03   0.893E+01 -.790E+00 0.797E+03   -.192E-01 -.456E-02 0.551E-01   -.256E-01 0.438E-03 0.116E-01
   -.758E+01 0.172E+02 -.800E+03   0.756E+01 -.172E+02 0.801E+03   0.384E-01 -.206E-01 -.486E-01   -.108E-01 -.243E-01 0.228E-01
   -.838E+01 -.657E+00 -.786E+03   0.854E+01 0.657E+00 0.786E+03   -.148E+00 0.796E-02 0.139E+00   -.126E-01 -.215E-02 0.237E-01
   -.711E+01 -.170E+02 -.799E+03   0.711E+01 0.170E+02 0.799E+03   0.286E-01 0.131E-01 -.446E-01   -.148E-01 0.237E-01 0.168E-01
   -.566E+01 0.441E+00 -.805E+03   0.567E+01 -.444E+00 0.805E+03   0.193E-01 -.363E-03 0.276E-01   -.129E-01 0.276E-02 0.160E-01
   0.592E+01 0.239E+02 -.256E+04   -.594E+01 -.238E+02 0.255E+04   0.216E-01 -.279E-01 0.323E+01   0.411E-02 -.678E-02 0.150E-01
   0.217E+02 0.278E+02 -.253E+04   -.216E+02 -.279E+02 0.253E+04   -.639E-01 0.623E-01 0.333E+01   0.486E-02 -.159E-01 0.267E-01
   0.220E+02 -.292E+02 -.253E+04   -.220E+02 0.293E+02 0.253E+04   -.567E-01 -.635E-01 0.334E+01   0.419E-02 0.712E-02 0.263E-01
   0.620E+01 -.224E+02 -.256E+04   -.623E+01 0.224E+02 0.255E+04   0.248E-01 0.218E-01 0.324E+01   0.303E-02 0.153E-01 0.147E-01
   0.266E+02 0.475E+02 -.254E+04   -.267E+02 -.474E+02 0.254E+04   0.151E-01 -.104E+00 0.328E+01   0.170E-01 -.847E-02 0.249E-02
   0.153E+03 0.152E+03 -.243E+04   -.153E+03 -.152E+03 0.242E+04   0.576E-01 0.187E+00 0.243E+01   0.155E-01 -.138E-01 0.130E-01
   0.152E+03 -.154E+03 -.243E+04   -.152E+03 0.154E+03 0.242E+04   0.476E-01 -.193E+00 0.244E+01   0.186E-01 0.753E-02 0.128E-01
   0.262E+02 -.460E+02 -.254E+04   -.263E+02 0.458E+02 0.254E+04   0.969E-02 0.102E+00 0.329E+01   0.200E-01 0.147E-01 0.193E-02
   -.101E+02 0.553E+02 -.253E+04   0.101E+02 -.553E+02 0.253E+04   0.175E-01 -.820E-01 0.329E+01   -.326E-02 -.119E-01 -.316E-02
   -.825E+02 0.170E+03 -.239E+04   0.828E+02 -.170E+03 0.239E+04   -.295E+00 0.604E+00 0.280E+01   -.435E-02 -.139E-01 0.736E-02
   -.835E+02 -.172E+03 -.239E+04   0.839E+02 0.173E+03 0.239E+04   -.380E+00 -.580E+00 0.276E+01   -.357E-02 0.114E-01 0.607E-02
   -.110E+02 -.521E+02 -.254E+04   0.109E+02 0.520E+02 0.253E+04   0.229E-01 0.718E-01 0.330E+01   -.231E-02 0.144E-01 -.470E-02
   -.228E+02 0.335E+02 -.255E+04   0.229E+02 -.334E+02 0.254E+04   -.399E-01 -.615E-01 0.325E+01   -.178E-01 -.993E-02 0.103E-01
   -.881E+02 0.695E+02 -.250E+04   0.877E+02 -.691E+02 0.250E+04   0.418E+00 -.391E+00 0.303E+01   -.155E-01 -.148E-01 0.213E-01
   -.856E+02 -.725E+02 -.250E+04   0.852E+02 0.720E+02 0.250E+04   0.509E+00 0.463E+00 0.297E+01   -.187E-01 0.107E-01 0.198E-01
   -.217E+02 -.303E+02 -.255E+04   0.218E+02 0.303E+02 0.254E+04   -.484E-01 0.468E-01 0.327E+01   -.209E-01 0.143E-01 0.882E-02
   0.262E+02 -.195E+01 -.134E+04   -.248E+02 0.200E+01 0.131E+04   -.141E+01 -.370E-01 0.251E+02   0.377E-02 -.138E-02 0.100E-03
   0.793E+02 -.300E+01 -.208E+04   -.817E+02 0.309E+01 0.213E+04   0.240E+01 -.836E-01 -.529E+02   0.245E-02 -.104E-02 -.133E-02
   -.115E+03 -.143E+02 -.175E+04   0.141E+03 0.273E+02 0.171E+04   -.255E+02 -.130E+02 0.374E+02   -.216E-02 -.919E-03 0.141E-02
   -.385E+02 0.313E+02 -.350E+03   0.414E+02 -.341E+02 0.357E+03   -.285E+01 0.284E+01 -.721E+01   -.252E-03 -.171E-03 0.206E-03
   0.609E+02 -.251E+01 -.310E+03   -.690E+02 0.280E+01 0.310E+03   0.811E+01 -.291E+00 -.359E+00   -.387E-03 -.104E-03 0.291E-04
   -.444E+01 -.940E-01 -.263E+03   0.395E+01 0.469E-01 0.263E+03   0.506E+00 0.496E-01 -.410E+00   -.152E-02 -.267E-03 0.145E-02
 -----------------------------------------------------------------------------------------------
   0.186E+02 0.105E+02 -.630E+00   -.403E-12 0.645E-13 -.421E-11   -.186E+02 -.105E+02 0.427E+00   0.318E-02 -.393E-02 0.229E+00
 
 
 POSITION                                       TOTAL-FORCE (eV/Angst)
 -----------------------------------------------------------------------------------
      1.37275      1.37275     12.08797        -0.012351     -0.009508     -0.000713
      1.37275      4.11824     12.08797        -0.026900      0.000289      0.013683
      1.37275      6.86373     12.08797        -0.010560      0.009371     -0.002635
      1.37275      9.60922     12.08797        -0.006049      0.003428     -0.003660
      4.11824      1.37275     12.08797        -0.009237     -0.016456      0.005025
      4.11824      4.11824     12.08797         0.000139      0.000859      0.004816
      4.11824      6.86373     12.08797        -0.008104      0.014218      0.005004
      4.11824      9.60922     12.08797        -0.011004      0.001876      0.019973
      6.86373      1.37275     12.08797         0.007266     -0.005600      0.000965
      6.86373      4.11824     12.08797         0.010938      0.000653      0.005930
      6.86373      6.86373     12.08797         0.008784      0.005349     -0.001157
      6.86373      9.60922     12.08797         0.020710      0.002821      0.008472
      9.60922      1.37275     12.08797        -0.004448     -0.015831      0.001804
      9.60922      4.11824     12.08797        -0.005211      0.001257      0.021281
      9.60922      6.86373     12.08797        -0.002410      0.016808      0.002547
      9.60922      9.60922     12.08797        -0.015866      0.003065     -0.036064
     10.97994      0.00074     14.04116        -0.001005     -0.001325     -0.002669
     10.97838      2.74135     14.04252         0.001149     -0.000395     -0.000566
     10.97958      5.49573     14.04234        -0.006312      0.001095     -0.000935
     10.98075      8.23797     14.04014        -0.000185     -0.000153      0.000578
      2.73951      0.00081     14.04383         0.002442      0.007594     -0.007891
      2.73965      2.74215     14.03951        -0.001058      0.000042      0.000963
      2.73984      5.49428     14.03975         0.005911     -0.000011     -0.000986
      2.74020      8.23639     14.04281         0.002005     -0.005260     -0.002954
      5.49117      0.00110     14.04100        -0.003299      0.000376     -0.000423
      5.49068      2.74211     14.03946        -0.000917     -0.001592     -0.000254
      5.49181      5.49442     14.03968        -0.010126      0.001435     -0.004991
      5.49184      8.23620     14.04011        -0.006722      0.001773      0.005069
      8.23538      0.00184     14.04443        -0.000108      0.003678     -0.007045
      8.23425      2.74343     14.04328        -0.003174     -0.001517     -0.000512
      8.23452      5.49390     14.04345         0.004799      0.001569     -0.003517
      8.23565      8.23654     14.04344         0.002019     -0.003215     -0.001913
      1.38066      1.38788     16.01104        -0.005148     -0.000091     -0.002248
      1.35854      4.11861     15.98708         0.004271      0.001146      0.001927
      1.38256      6.85014     16.00955        -0.006054      0.002212      0.002153
      1.36954      9.61097     15.98909        -0.013464     -0.005885      0.006905
      4.11393      1.36920     15.99163         0.008359      0.004487     -0.003058
      4.10556      4.11781     15.94940        -0.001657      0.000225     -0.002299
      4.11532      6.86811     15.99030         0.005302     -0.000903     -0.005872
      4.11416      9.61012     15.98587         0.018763     -0.003603      0.002601
      6.84676      1.38232     16.00972        -0.005284      0.001372     -0.003748
      6.86272      4.11849     15.97935        -0.003841     -0.001348      0.004501
      6.84821      6.85673     16.00720        -0.001419      0.003664      0.003486
      6.86121      9.61106     15.98878        -0.016456     -0.002882      0.004186
      9.60006      1.37803     15.99777         0.007883      0.000395     -0.001779
      9.60482      4.11869     15.99472         0.003458      0.005343     -0.001385
      9.60319      6.86252     15.99477         0.004729     -0.005739     -0.000658
      9.60601      9.61139     15.98833         0.014537     -0.000699     -0.002840
     10.97591      0.00024     17.94503         0.001670     -0.002071     -0.007806
     10.97183      2.74527     17.95281         0.000711     -0.000759     -0.003934
     10.97434      5.49497     17.95157         0.002508     -0.001313     -0.004409
     10.97753      8.23974     17.94360         0.003412      0.000591     -0.007412
      2.74180     10.97852     17.94882        -0.002627     -0.001080      0.001820
      2.73875      2.74916     18.00884         0.001049      0.000129      0.003062
      2.74218      5.48806     18.00834        -0.003315     -0.002485      0.001940
      2.74352      8.24064     17.94620        -0.004908      0.001583      0.007865
      5.48376     10.97669     17.95111         0.002032     -0.005649     -0.004924
      5.46141      2.75351     18.01139         0.001516      0.004511      0.000158
      5.46351      5.48378     18.00574         0.007073     -0.003478     -0.005694
      5.48540      8.24300     17.95061         0.001754      0.005474     -0.007694
      8.23236     10.97748     17.94648        -0.000382      0.001599     -0.001589
      8.22737      2.73553     17.98788         0.001337     -0.000824      0.002038
      8.23290      5.50772     17.98312        -0.000537      0.004404     -0.004141
      8.23458      8.24617     17.94390        -0.003927     -0.001673      0.002610
      3.98795      4.11563     19.04634         0.005691      0.002632      0.001031
      3.97458      4.11563     20.28061         0.007497      0.003455      0.001706
      6.87270      4.03537     20.88611         0.009523     -0.012972      0.009105
      7.18027      3.69788     21.74510         0.010835     -0.006616      0.004884
      5.89647      4.05867     20.95771         0.016412     -0.002064     -0.010398
      7.01990      4.13583     18.18597         0.007580      0.002216      0.002682
 -----------------------------------------------------------------------------------
    total drift:                               -0.008828      0.003233      0.026385


--------------------------------------------------------------------------------------------------------



  FREE ENERGIE OF THE ION-ELECTRON SYSTEM (eV)
  ---------------------------------------------------
  free  energy   TOTEN  =      -369.26775344 eV

  energy  without entropy=     -369.15868730  energy(sigma->0) =     -369.23139806
 
 d Force = 0.1079458E-05[-0.187E-06, 0.235E-05]  d Energy = 0.3080819E-06 0.771E-06
 d Force = 0.6966659E+00[ 0.697E+00, 0.697E+00]  d Ewald  = 0.6966659E+00-0.192E-08


--------------------------------------------------------------------------------------------------------


    POTLOK:  cpu time    0.2576: real time    0.2489


--------------------------------------------------------------------------------------------------------




--------------------------------------------------------------------------------------------------------


  
 reached required accuracy - stopping structural energy minimisation
     LOOP+:  cpu time  360.5808: real time  188.9375
    4ORBIT:  cpu time    0.0000: real time    0.0000
 


 total charge     
 
# of ion       s       p       d       tot
------------------------------------------
    1        0.446   0.308   8.521   9.276
    2        0.445   0.308   8.522   9.275
    3        0.446   0.308   8.521   9.276
    4        0.443   0.309   8.521   9.273
    5        0.445   0.308   8.522   9.275
    6        0.445   0.307   8.521   9.274
    7        0.445   0.308   8.522   9.275
    8        0.445   0.306   8.522   9.274
    9        0.446   0.308   8.521   9.275
   10        0.444   0.308   8.522   9.274
   11        0.446   0.308   8.521   9.275
   12        0.444   0.308   8.520   9.273
   13        0.445   0.308   8.521   9.274
   14        0.445   0.306   8.523   9.275
   15        0.445   0.308   8.521   9.274
   16        0.445   0.308   8.523   9.275
   17        0.485   0.476   8.464   9.425
   18        0.485   0.478   8.460   9.423
   19        0.485   0.478   8.460   9.423
   20        0.485   0.476   8.464   9.425
   21        0.486   0.479   8.459   9.424
   22        0.488   0.482   8.457   9.428
   23        0.488   0.482   8.457   9.428
   24        0.486   0.479   8.459   9.424
   25        0.485   0.479   8.460   9.424
   26        0.488   0.482   8.457   9.427
   27        0.488   0.482   8.457   9.427
   28        0.485   0.479   8.460   9.424
   29        0.485   0.477   8.461   9.423
   30        0.486   0.479   8.459   9.424
   31        0.486   0.479   8.459   9.424
   32        0.485   0.477   8.461   9.423
   33        0.486   0.476   8.461   9.423
   34        0.484   0.472   8.467   9.423
   35        0.487   0.476   8.461   9.423
   36        0.486   0.477   8.458   9.421
   37        0.485   0.472   8.466   9.422
   38        0.474   0.456   8.487   9.417
   39        0.485   0.472   8.466   9.423
   40        0.486   0.479   8.460   9.424
   41        0.485   0.472   8.459   9.416
   42        0.467   0.473   8.488   9.428
   43        0.485   0.473   8.459   9.416
   44        0.485   0.478   8.457   9.421
   45        0.486   0.475   8.459   9.420
   46        0.483   0.473   8.461   9.416
   47        0.486   0.475   8.460   9.421
   48        0.488   0.480   8.457   9.425
   49        0.445   0.309   8.520   9.274
   50        0.447   0.307   8.528   9.283
   51        0.447   0.307   8.528   9.283
   52        0.446   0.309   8.520   9.275
   53        0.447   0.309   8.524   9.280
   54        0.444   0.389   8.531   9.364
   55        0.444   0.389   8.531   9.363
   56        0.447   0.309   8.524   9.281
   57        0.447   0.307   8.525   9.279
   58        0.421   0.375   8.544   9.340
   59        0.423   0.377   8.545   9.345
   60        0.446   0.307   8.525   9.278
   61        0.448   0.310   8.524   9.281
   62        0.438   0.349   8.548   9.334
   63        0.441   0.352   8.549   9.341
   64        0.448   0.310   8.524   9.281
   65        1.286   2.331   0.000   3.617
   66        1.627   3.440   0.000   5.068
   67        1.591   3.617   0.000   5.208
   68        0.626   0.114   0.000   0.740
   69        0.612   0.115   0.000   0.727
   70        0.467   0.026   0.000   0.492
--------------------------------------------------
tot         35.919  35.125 543.615 614.659
 


 magnetization (x)
 
# of ion       s       p       d       tot
------------------------------------------
    1       -0.001  -0.004   0.225   0.221
    2       -0.001  -0.004   0.224   0.219
    3       -0.001  -0.004   0.225   0.221
    4       -0.001  -0.003   0.230   0.226
    5       -0.001  -0.004   0.228   0.223
    6       -0.000  -0.004   0.230   0.226
    7       -0.001  -0.004   0.228   0.223
    8       -0.001  -0.004   0.216   0.211
    9       -0.001  -0.004   0.226   0.222
   10       -0.001  -0.004   0.228   0.223
   11       -0.001  -0.004   0.226   0.222
   12       -0.001  -0.003   0.228   0.224
   13       -0.001  -0.003   0.227   0.222
   14       -0.000  -0.004   0.213   0.208
   15       -0.001  -0.003   0.227   0.222
   16        0.003  -0.004   0.240   0.239
   17       -0.002  -0.006   0.321   0.313
   18       -0.002  -0.006   0.318   0.310
   19       -0.002  -0.006   0.319   0.310
   20       -0.002  -0.006   0.321   0.313
   21       -0.002  -0.006   0.325   0.317
   22       -0.002  -0.006   0.323   0.315
   23       -0.002  -0.006   0.323   0.315
   24       -0.002  -0.006   0.325   0.317
   25       -0.002  -0.007   0.322   0.314
   26       -0.002  -0.006   0.324   0.316
   27       -0.002  -0.006   0.324   0.316
   28       -0.002  -0.006   0.322   0.314
   29       -0.002  -0.006   0.319   0.311
   30       -0.002  -0.006   0.322   0.314
   31       -0.002  -0.006   0.322   0.313
   32       -0.002  -0.006   0.319   0.311
   33       -0.002  -0.006   0.280   0.272
   34       -0.002  -0.006   0.310   0.303
   35       -0.002  -0.006   0.280   0.272
   36       -0.002  -0.006   0.319   0.311
   37       -0.002  -0.006   0.308   0.301
   38       -0.001  -0.005   0.266   0.260
   39       -0.002  -0.006   0.308   0.300
   40       -0.002  -0.006   0.315   0.307
   41       -0.002  -0.006   0.282   0.274
   42       -0.002  -0.005   0.278   0.271
   43       -0.002  -0.006   0.282   0.274
   44       -0.002  -0.006   0.320   0.312
   45       -0.002  -0.006   0.305   0.297
   46       -0.002  -0.006   0.301   0.292
   47       -0.002  -0.006   0.304   0.296
   48       -0.001  -0.006   0.323   0.316
   49       -0.001  -0.003   0.225   0.221
   50       -0.000  -0.004   0.211   0.207
   51       -0.000  -0.004   0.211   0.207
   52       -0.001  -0.003   0.225   0.221
   53       -0.000  -0.004   0.208   0.204
   54       -0.003  -0.004   0.092   0.086
   55       -0.003  -0.004   0.093   0.086
   56       -0.000  -0.004   0.209   0.205
   57       -0.000  -0.004   0.214   0.210
   58       -0.002  -0.003   0.098   0.093
   59       -0.002  -0.003   0.098   0.093
   60       -0.000  -0.004   0.214   0.210
   61       -0.001  -0.004   0.216   0.211
   62       -0.001  -0.004   0.150   0.145
   63       -0.001  -0.004   0.148   0.143
   64       -0.001  -0.003   0.216   0.212
   65        0.001  -0.009   0.000  -0.008
   66       -0.000  -0.015   0.000  -0.015
   67        0.000   0.000   0.000   0.000
   68        0.000   0.000   0.000   0.000
   69        0.000  -0.000   0.000  -0.000
   70       -0.002  -0.000   0.000  -0.002
--------------------------------------------------
tot         -0.084  -0.335  16.377  15.958
 

 total amount of memory used by VASP MPI-rank0   269681. kBytes
=======================================================================

   base      :      30000. kBytes
   nonlr-proj:      51597. kBytes
   fftplans  :       7679. kBytes
   grid      :      92335. kBytes
   one-center:       2177. kBytes
   wavefun   :      85893. kBytes
 
  
  
 General timing and accounting informations for this job:
 ========================================================
  
                  Total CPU time used (sec):     7912.414
                            User time (sec):     7538.050
                          System time (sec):      374.365
                         Elapsed time (sec):     4202.296
  
                   Maximum memory used (kb):      888204.
                   Average memory used (kb):           0.
  
                          Minor page faults:      1443991
                          Major page faults:           10
                 Voluntary context switches:        33078
