 vasp.5.4.4.18Apr17-6-g9f103f2a35 (build May 01 2020 14:57:12) complex          
  
 executed on             LinuxIFC date 2021.11.21  15:50:07
 running on  192 total cores
 distrk:  each k-point on  192 cores,    1 groups
 distr:  one band on NCORES_PER_BAND=   1 cores,  192 groups


--------------------------------------------------------------------------------------------------------


 INCAR:
 POTCAR:    PAW_PBE N 08Apr2002                   
 POTCAR:    PAW_PBE O 08Apr2002                   
 POTCAR:    PAW_PBE Pd 04Jan2005                  

 ----------------------------------------------------------------------------- 
|                                                                             |
|           W    W    AA    RRRRR   N    N  II  N    N   GGGG   !!!           |
|           W    W   A  A   R    R  NN   N  II  NN   N  G    G  !!!           |
|           W    W  A    A  R    R  N N  N  II  N N  N  G       !!!           |
|           W WW W  AAAAAA  RRRRR   N  N N  II  N  N N  G  GGG   !            |
|           WW  WW  A    A  R   R   N   NN  II  N   NN  G    G                |
|           W    W  A    A  R    R  N    N  II  N    N   GGGG   !!!           |
|                                                                             |
|      For optimal performance we recommend to set                            |
|        NCORE= 4 - approx SQRT( number of cores)                             |
|      NCORE specifies how many cores store one orbital (NPAR=cpu/NCORE).     |
|      This setting can  greatly improve the performance of VASP for DFT.     |
|      The default,   NCORE=1            might be grossly inefficient         |
|      on modern multi-core architectures or massively parallel machines.     |
|      Do your own testing !!!!                                               |
|      Unfortunately you need to use the default for GW and RPA calculations. |
|      (for HF NCORE is supported but not extensively tested yet)             |
|                                                                             |
 ----------------------------------------------------------------------------- 

 POTCAR:    PAW_PBE N 08Apr2002                   
   VRHFIN =N: s2p3                                                              
   LEXCH  = PE                                                                  
   EATOM  =   264.5486 eV,   19.4438 Ry                                         
                                                                                
   TITEL  = PAW_PBE N 08Apr2002                                                 
   LULTRA =        F    use ultrasoft PP ?                                      
   IUNSCR =        1    unscreen: 0-lin 1-nonlin 2-no                           
   RPACOR =    1.200    partial core radius                                     
   POMASS =   14.001; ZVAL   =    5.000    mass and valenz                      
   RCORE  =    1.500    outmost cutoff radius                                   
   RWIGS  =    1.400; RWIGS  =    0.741    wigner-seitz radius (au A)           
   ENMAX  =  400.000; ENMIN  =  300.000 eV                                      
   ICORE  =        2    local potential                                         
   LCOR   =        T    correct aug charges                                     
   LPAW   =        T    paw PP                                                  
   EAUG   =  627.112                                                            
   DEXC   =    0.000                                                            
   RMAX   =    1.529    core radius for proj-oper                               
   RAUG   =    1.300    factor for augmentation sphere                          
   RDEP   =    1.514    radius for radial grids                                 
   RDEPT  =    1.338    core radius for aug-charge                              
                                                                                
   Atomic configuration                                                         
    4 entries                                                                   
     n  l   j            E        occ.                                          
     1  0  0.50      -384.7179   2.0000                                         
     2  0  0.50       -18.5828   2.0000                                         
     2  1  0.50        -7.0898   3.0000                                         
     3  2  1.50        -6.8029   0.0000                                         
   Description                                                                  
     l       E           TYP  RCUT    TYP  RCUT                                 
     0    -18.5828119     23  1.200                                             
     0    -13.5018863     23  1.200                                             
     1     -7.0897853     23  1.500                                             
     1      9.5240782     23  1.500                                             
     2     -6.8029130      7  1.500                                             
  local pseudopotential read in
  partial core-charges read in
  partial kinetic energy density read in
  atomic valenz-charges read in
  non local Contribution for L=           0  read in
    real space projection operators read in
  non local Contribution for L=           0  read in
    real space projection operators read in
  non local Contribution for L=           1  read in
    real space projection operators read in
  non local Contribution for L=           1  read in
    real space projection operators read in
    PAW grid and wavefunctions read in
 
   number of l-projection  operators is LMAX  =           4
   number of lm-projection operators is LMMAX =           8
 
 POTCAR:    PAW_PBE O 08Apr2002                   
   VRHFIN =O: s2p4                                                              
   LEXCH  = PE                                                                  
   EATOM  =   432.3788 eV,   31.7789 Ry                                         
                                                                                
   TITEL  = PAW_PBE O 08Apr2002                                                 
   LULTRA =        F    use ultrasoft PP ?                                      
   IUNSCR =        1    unscreen: 0-lin 1-nonlin 2-no                           
   RPACOR =    1.200    partial core radius                                     
   POMASS =   16.000; ZVAL   =    6.000    mass and valenz                      
   RCORE  =    1.520    outmost cutoff radius                                   
   RWIGS  =    1.550; RWIGS  =    0.820    wigner-seitz radius (au A)           
   ENMAX  =  400.000; ENMIN  =  300.000 eV                                      
   ICORE  =        2    local potential                                         
   LCOR   =        T    correct aug charges                                     
   LPAW   =        T    paw PP                                                  
   EAUG   =  605.392                                                            
   DEXC   =    0.000                                                            
   RMAX   =    1.553    core radius for proj-oper                               
   RAUG   =    1.300    factor for augmentation sphere                          
   RDEP   =    1.550    radius for radial grids                                 
   RDEPT  =    1.329    core radius for aug-charge                              
                                                                                
   Atomic configuration                                                         
    4 entries                                                                   
     n  l   j            E        occ.                                          
     1  0  0.50      -514.6923   2.0000                                         
     2  0  0.50       -23.9615   2.0000                                         
     2  1  0.50        -9.0305   4.0000                                         
     3  2  1.50        -9.5241   0.0000                                         
   Description                                                                  
     l       E           TYP  RCUT    TYP  RCUT                                 
     0    -23.9615318     23  1.200                                             
     0     -9.5240782     23  1.200                                             
     1     -9.0304911     23  1.520                                             
     1      8.1634956     23  1.520                                             
     2     -9.5240782      7  1.500                                             
  local pseudopotential read in
  partial core-charges read in
  partial kinetic energy density read in
  kinetic energy density of atom read in
  atomic valenz-charges read in
  non local Contribution for L=           0  read in
    real space projection operators read in
  non local Contribution for L=           0  read in
    real space projection operators read in
  non local Contribution for L=           1  read in
    real space projection operators read in
  non local Contribution for L=           1  read in
    real space projection operators read in
    PAW grid and wavefunctions read in
 
   number of l-projection  operators is LMAX  =           4
   number of lm-projection operators is LMMAX =           8
 
 POTCAR:    PAW_PBE Pd 04Jan2005                  
   VRHFIN =Pd : s1 d9                                                           
   LEXCH  = PE                                                                  
   EATOM  =   809.7530 eV,   59.5152 Ry                                         
                                                                                
   TITEL  = PAW_PBE Pd 04Jan2005                                                
   LULTRA =        F    use ultrasoft PP ?                                      
   IUNSCR =        1    unscreen: 0-lin 1-nonlin 2-no                           
   RPACOR =    2.000    partial core radius                                     
   POMASS =  106.420; ZVAL   =   10.000    mass and valenz                      
   RCORE  =    2.600    outmost cutoff radius                                   
   RWIGS  =    2.710; RWIGS  =    1.434    wigner-seitz radius (au A)           
   ENMAX  =  250.925; ENMIN  =  188.194 eV                                      
   ICORE  =        3    local potential                                         
   LCOR   =        T    correct aug charges                                     
   LPAW   =        T    paw PP                                                  
   EAUG   =  416.230                                                            
   DEXC   =    0.000                                                            
   RMAX   =    2.653    core radius for proj-oper                               
   RAUG   =    1.300    factor for augmentation sphere                          
   RDEP   =    2.734    radius for radial grids                                 
   RDEPT  =    2.103    core radius for aug-charge                              
                                                                                
   Atomic configuration                                                         
   12 entries                                                                   
     n  l   j            E        occ.                                          
     1  0  0.50    -24164.6631   2.0000                                         
     2  0  0.50     -3530.9218   2.0000                                         
     2  1  1.50     -3165.6822   6.0000                                         
     3  0  0.50      -639.4577   2.0000                                         
     3  1  1.50      -519.4532   6.0000                                         
     3  2  2.50      -328.9757  10.0000                                         
     4  0  0.50       -88.7014   2.0000                                         
     4  1  1.50       -54.4540   6.0000                                         
     4  2  2.50        -6.6878   9.0000                                         
     5  0  0.50        -4.3543   1.0000                                         
     5  1  0.50        -1.3606   0.0000                                         
     4  3  2.50        -1.3606   0.0000                                         
   Description                                                                  
     l       E           TYP  RCUT    TYP  RCUT                                 
     2     -6.6878251     23  2.400                                             
     2     -8.0484077     23  2.400                                             
     0     -4.3542939     23  2.400                                             
     0      4.3406793     23  2.400                                             
     1     -4.0817478     23  2.600                                             
     1     15.8380318     23  2.600                                             
     3     -4.0817478     23  2.400                                             
  local pseudopotential read in
  partial core-charges read in
  partial kinetic energy density read in
  atomic valenz-charges read in
  non local Contribution for L=           2  read in
    real space projection operators read in
  non local Contribution for L=           2  read in
    real space projection operators read in
  non local Contribution for L=           0  read in
    real space projection operators read in
  non local Contribution for L=           0  read in
    real space projection operators read in
  non local Contribution for L=           1  read in
    real space projection operators read in
  non local Contribution for L=           1  read in
    real space projection operators read in
    PAW grid and wavefunctions read in
 
   number of l-projection  operators is LMAX  =           6
   number of lm-projection operators is LMMAX =          18
 
 Optimization of the real space projectors (new method)

 maximal supplied QI-value         = 25.13
 optimisation between [QCUT,QGAM] = [ 10.05, 20.36] = [ 28.30,116.06] Ry 
 Optimized for a Real-space Cutoff    1.70 Angstroem

   l    n(q)    QCUT    max X(q) W(low)/X(q) W(high)/X(q)  e(spline) 
   0     10    10.053    79.467    0.61E-04    0.98E-04    0.61E-06
   0     10    10.053    66.151    0.60E-04    0.98E-04    0.61E-06
   1     10    10.053     8.350    0.17E-03    0.71E-03    0.45E-05
   1     10    10.053     5.531    0.18E-03    0.77E-03    0.49E-05
 Optimization of the real space projectors (new method)

 maximal supplied QI-value         = 24.76
 optimisation between [QCUT,QGAM] = [ 10.15, 20.30] = [ 28.85,115.39] Ry 
 Optimized for a Real-space Cutoff    1.51 Angstroem

   l    n(q)    QCUT    max X(q) W(low)/X(q) W(high)/X(q)  e(spline) 
   0      9    10.150    20.381    0.17E-03    0.18E-03    0.41E-06
   0      9    10.150    15.268    0.18E-03    0.20E-03    0.43E-06
   1      9    10.150     5.964    0.16E-03    0.20E-03    0.36E-06
   1      9    10.150     5.382    0.13E-03    0.16E-03    0.33E-06
 Optimization of the real space projectors (new method)

 maximal supplied QI-value         = 14.36
 optimisation between [QCUT,QGAM] = [ 10.20, 20.39] = [ 29.12,116.47] Ry 
 Optimized for a Real-space Cutoff    1.55 Angstroem

   l    n(q)    QCUT    max X(q) W(low)/X(q) W(high)/X(q)  e(spline) 
   2      9    10.197    59.108    0.12E-03    0.40E-04    0.11E-06
   2      9    10.197    58.101    0.12E-03    0.39E-04    0.12E-06
   0      9    10.197   102.235    0.41E-04    0.86E-05    0.83E-07
   0      9    10.197    58.388    0.37E-04    0.79E-05    0.78E-07
   1      9    10.197    22.191    0.25E-03    0.13E-03    0.84E-07
   1      9    10.197    15.590    0.21E-03    0.11E-03    0.74E-07
  PAW_PBE N 08Apr2002                   :
 energy of atom  1       EATOM= -264.5486
 kinetic energy error for atom=    0.0736 (will be added to EATOM!!)
  PAW_PBE O 08Apr2002                   :
 energy of atom  2       EATOM= -432.3788
 kinetic energy error for atom=    0.1156 (will be added to EATOM!!)
  PAW_PBE Pd 04Jan2005                  :
 energy of atom  3       EATOM= -809.7530
 kinetic energy error for atom=    0.0091 (will be added to EATOM!!)
 
 
 POSCAR: N O Pd                                  
  positions in direct lattice
  velocities in cartesian coordinates
 exchange correlation table for  LEXCH =        8
   RHO(1)=    0.500       N(1)  =     2000
   RHO(2)=  100.500       N(2)  =     4000
 


--------------------------------------------------------------------------------------------------------


 ion  position               nearest neighbor table
   1  0.483  0.380  0.649-  10 1.19  75 1.95  76 2.00
   2  0.411  0.915  0.646-  11 1.21  74 2.04  70 2.17  77 2.18
   3  0.768  0.370  0.649-  12 1.19  80 1.95  79 2.00
   4  0.840  0.835  0.646-  13 1.21  81 2.04  69 2.17  78 2.19
   5  0.586  0.661  0.646-  14 1.21  77 2.04  76 2.17  81 2.18
   6  0.665  0.090  0.646-  15 1.21  78 2.04  79 2.17  74 2.19
   7  0.120  0.732  0.649-  16 1.19  73 1.95  69 2.00
   8  0.130  0.017  0.649-  17 1.19  66 1.95  70 2.00
   9  0.125  0.375  0.620-  72 2.01  67 2.01  68 2.01  71 2.01
  10  0.495  0.370  0.689-   1 1.19
  11  0.414  0.914  0.686-   2 1.21
  12  0.757  0.380  0.688-   3 1.19
  13  0.837  0.836  0.686-   4 1.21
  14  0.587  0.663  0.686-   5 1.21
  15  0.664  0.087  0.686-   6 1.21
  16  0.130  0.743  0.688-   7 1.19
  17  0.120  0.005  0.688-   8 1.19
  18  0.125  0.125  0.403-  35 2.74  22 2.75  19 2.75  30 2.75  21 2.75  39 2.76  38 2.76  34 2.76

  19  0.125  0.375  0.403-  18 2.75  20 2.75  23 2.75  31 2.75  36 2.76  40 2.76  35 2.77  39 2.77

  20  0.125  0.625  0.403-  40 2.74  21 2.75  24 2.75  19 2.75  32 2.75  36 2.76  37 2.76  41 2.76

  21  0.125  0.875  0.403-  20 2.75  25 2.75  18 2.75  33 2.75  34 2.75  41 2.75  38 2.76  37 2.76

  22  0.375  0.125  0.403-  39 2.73  38 2.74  26 2.75  18 2.75  23 2.75  25 2.75  43 2.77  42 2.77

  23  0.375  0.375  0.403-  39 2.74  22 2.75  24 2.75  27 2.75  19 2.75  40 2.76  44 2.76  43 2.76

  24  0.375  0.625  0.403-  40 2.73  44 2.74  25 2.75  28 2.75  20 2.75  23 2.75  41 2.77  45 2.77

  25  0.375  0.875  0.403-  38 2.74  24 2.75  29 2.75  21 2.75  22 2.75  41 2.76  45 2.76  42 2.78

  26  0.625  0.125  0.403-  47 2.74  27 2.75  30 2.75  22 2.75  29 2.75  43 2.75  42 2.76  46 2.78

  27  0.625  0.375  0.403-  23 2.75  26 2.75  28 2.75  31 2.75  48 2.75  43 2.75  44 2.76  47 2.76

  28  0.625  0.625  0.403-  44 2.74  27 2.75  29 2.75  32 2.75  24 2.75  48 2.75  49 2.76  45 2.78

  29  0.625  0.875  0.403-  25 2.75  28 2.75  33 2.75  26 2.75  46 2.77  49 2.77  45 2.77  42 2.77

  30  0.875  0.125  0.403-  35 2.73  47 2.74  26 2.75  31 2.75  18 2.75  33 2.75  34 2.77  46 2.77

  31  0.875  0.375  0.403-  36 2.74  30 2.75  32 2.75  27 2.75  19 2.75  35 2.76  48 2.76  47 2.76

  32  0.875  0.625  0.403-  36 2.73  37 2.74  33 2.75  28 2.75  31 2.75  20 2.75  48 2.76  49 2.77

  33  0.875  0.875  0.403-  37 2.74  32 2.75  29 2.75  21 2.75  30 2.75  34 2.75  46 2.76  49 2.78

  34  0.000  0.999  0.468-  37 2.73  35 2.73  46 2.74  53 2.74  50 2.75  21 2.75  33 2.75  38 2.76
                            18 2.76  30 2.77  62 2.77  65 2.80
  35  0.999  0.248  0.468-  51 2.70  30 2.73  34 2.73  18 2.74  47 2.74  63 2.74  31 2.76  19 2.77
                            36 2.78  50 2.78  39 2.78  62 2.80
  36  0.998  0.500  0.468-  51 2.70  48 2.73  32 2.73  31 2.74  37 2.74  52 2.74  20 2.76  19 2.76
                            63 2.78  35 2.78  40 2.78  64 2.80
  37  0.998  0.750  0.468-  52 2.71  34 2.73  49 2.74  33 2.74  36 2.74  32 2.74  21 2.76  20 2.76
                            41 2.76  65 2.77  53 2.77  64 2.82
  38  0.252  1.000  0.468-  50 2.71  41 2.73  42 2.74  25 2.74  39 2.74  22 2.74  21 2.76  34 2.76
                            18 2.76  57 2.76  53 2.77  54 2.82
  39  0.252  0.249  0.468-  51 2.70  22 2.73  43 2.73  23 2.74  38 2.74  50 2.74  18 2.76  19 2.77
                            55 2.78  40 2.78  35 2.78  54 2.80
  40  0.251  0.502  0.468-  51 2.70  24 2.73  41 2.73  44 2.74  20 2.74  55 2.74  23 2.76  19 2.76
                            52 2.78  36 2.78  39 2.78  56 2.80
  41  0.250  0.751  0.468-  38 2.73  40 2.73  45 2.74  53 2.74  52 2.74  21 2.75  25 2.76  37 2.76
                            20 2.76  24 2.77  56 2.77  57 2.80
  42  0.501  0.001  0.469-  38 2.74  43 2.74  46 2.74  45 2.74  26 2.76  61 2.76  29 2.77  22 2.77
                            57 2.77  54 2.77  25 2.78  58 2.79
  43  0.501  0.250  0.468-  47 2.73  39 2.73  42 2.74  59 2.74  55 2.75  27 2.75  26 2.75  44 2.76
                            23 2.76  22 2.77  54 2.78  58 2.80
  44  0.500  0.502  0.468-  55 2.71  48 2.73  45 2.74  40 2.74  28 2.74  24 2.74  27 2.76  23 2.76
                            43 2.76  60 2.77  59 2.77  56 2.82
  45  0.499  0.751  0.469-  44 2.74  41 2.74  42 2.74  49 2.75  25 2.76  61 2.76  29 2.77  24 2.77
                            60 2.77  56 2.77  28 2.78  57 2.79
  46  0.751  0.999  0.469-  47 2.74  34 2.74  49 2.74  42 2.74  33 2.76  61 2.76  29 2.77  30 2.77
                            58 2.77  62 2.77  26 2.78  65 2.79
  47  0.750  0.248  0.468-  63 2.71  43 2.73  46 2.74  26 2.74  35 2.74  30 2.74  27 2.76  31 2.76
                            48 2.76  58 2.77  59 2.77  62 2.82
  48  0.749  0.500  0.468-  44 2.73  36 2.73  49 2.74  59 2.74  63 2.75  27 2.75  28 2.75  31 2.76
                            47 2.76  32 2.76  64 2.77  60 2.80
  49  0.749  0.749  0.469-  37 2.74  48 2.74  46 2.74  45 2.75  28 2.76  61 2.76  29 2.77  32 2.77
                            65 2.77  64 2.77  33 2.78  60 2.79
  50  0.130  0.122  0.532-  38 2.71  53 2.71  54 2.73  39 2.74  34 2.75  66 2.75  71 2.76  35 2.78
                            62 2.78  51 2.78  67 2.85  70 3.01
  51  0.125  0.375  0.529-  39 2.70  40 2.70  35 2.70  36 2.70  55 2.78  50 2.78  52 2.78  63 2.78
                            67 2.82  68 2.83  72 2.83  71 2.83
  52  0.120  0.628  0.532-  37 2.71  53 2.71  64 2.74  36 2.74  41 2.74  73 2.75  68 2.76  40 2.78
                            56 2.78  51 2.78  72 2.85  69 3.01
  53  0.125  0.875  0.533-  50 2.71  52 2.71  65 2.74  57 2.74  41 2.74  34 2.74  37 2.77  38 2.77
                            66 2.80  73 2.80  69 2.98  70 2.98
  54  0.378  0.127  0.535-  57 2.73  50 2.73  58 2.74  71 2.76  75 2.77  42 2.77  43 2.78  55 2.78
                            39 2.80  38 2.82  70 2.84  74 2.85
  55  0.378  0.379  0.532-  44 2.71  59 2.71  56 2.73  40 2.74  43 2.75  75 2.75  72 2.76  39 2.78
                            54 2.78  51 2.78  71 2.85  76 3.01
  56  0.373  0.628  0.535-  60 2.73  55 2.73  57 2.74  72 2.76  73 2.76  41 2.77  45 2.77  52 2.78
                            40 2.80  44 2.82  76 2.84  77 2.86
  57  0.374  0.878  0.535-  77 2.70  54 2.73  53 2.74  56 2.74  70 2.75  61 2.75  38 2.76  42 2.77
                            45 2.79  41 2.80  73 2.89  74 3.03
  58  0.628  0.126  0.535-  74 2.70  62 2.73  59 2.74  54 2.74  79 2.75  61 2.75  47 2.77  46 2.77
                            42 2.79  43 2.80  75 2.89  78 3.02
  59  0.625  0.375  0.533-  55 2.71  63 2.71  60 2.74  58 2.74  43 2.74  48 2.74  44 2.77  47 2.77
                            75 2.80  80 2.80  76 2.98  79 2.98
  60  0.622  0.624  0.535-  81 2.70  56 2.73  59 2.74  64 2.74  76 2.75  61 2.75  44 2.77  45 2.77
                            49 2.79  48 2.80  80 2.89  77 3.03
  61  0.625  0.875  0.534-  65 2.75  60 2.75  58 2.75  57 2.75  42 2.76  45 2.76  49 2.76  46 2.76
                            81 2.87  78 2.87  77 2.87  74 2.87
  62  0.877  0.121  0.535-  58 2.73  63 2.74  65 2.74  67 2.76  66 2.77  46 2.77  34 2.77  50 2.78
                            35 2.80  47 2.82  79 2.84  78 2.85
  63  0.872  0.370  0.532-  47 2.71  59 2.71  62 2.74  35 2.74  48 2.75  80 2.75  67 2.76  36 2.78
                            64 2.78  51 2.78  68 2.85  79 3.01
  64  0.872  0.623  0.535-  65 2.73  52 2.74  60 2.74  68 2.76  80 2.76  49 2.77  48 2.77  63 2.78
                            36 2.80  37 2.82  69 2.84  81 2.85
  65  0.876  0.872  0.535-  78 2.70  64 2.73  53 2.74  62 2.74  69 2.75  61 2.75  37 2.77  49 2.77
                            46 2.79  34 2.80  66 2.89  81 3.02
  66  0.010  0.007  0.601-   8 1.95  78 2.70  67 2.71  50 2.75  62 2.77  69 2.79  53 2.80  70 2.82
                            65 2.89
  67  0.000  0.254  0.599-   9 2.01  68 2.70  71 2.70  66 2.71  62 2.76  63 2.76  79 2.82  51 2.82
                            50 2.85
  68  0.004  0.500  0.599-   9 2.01  67 2.70  72 2.70  80 2.71  52 2.76  64 2.76  69 2.82  51 2.83
                            63 2.85
  69  0.984  0.755  0.606-   7 2.00   4 2.17  65 2.75  81 2.77  66 2.79  68 2.82  73 2.82  64 2.84
                            53 2.98  52 3.01
  70  0.267  0.995  0.606-   8 2.00   2 2.17  57 2.75  74 2.77  73 2.79  66 2.82  71 2.82  54 2.84
                            53 2.98  50 3.01
  71  0.246  0.250  0.599-   9 2.01  72 2.70  67 2.70  75 2.71  54 2.76  50 2.76  70 2.82  51 2.83
                            55 2.85
  72  0.250  0.495  0.599-   9 2.01  71 2.70  68 2.70  73 2.71  55 2.76  56 2.76  76 2.82  51 2.83
                            52 2.85
  73  0.240  0.742  0.601-   7 1.95  77 2.70  72 2.71  52 2.75  56 2.76  70 2.79  53 2.80  69 2.82
                            57 2.89
  74  0.518  0.016  0.605-   2 2.04   6 2.19  58 2.70  75 2.70  78 2.75  77 2.75  70 2.77  54 2.85
                            61 2.87  57 3.03
  75  0.493  0.261  0.601-   1 1.95  74 2.70  71 2.71  55 2.75  54 2.77  79 2.79  59 2.80  76 2.82
                            58 2.89
  76  0.505  0.517  0.606-   1 2.00   5 2.17  60 2.75  77 2.77  80 2.79  75 2.82  72 2.82  56 2.84
                            59 2.98  55 3.01
  77  0.484  0.768  0.605-   5 2.04   2 2.18  73 2.70  57 2.70  81 2.75  74 2.75  76 2.77  56 2.86
                            61 2.87  60 3.03
  78  0.766  0.982  0.605-   6 2.04   4 2.19  65 2.70  66 2.70  74 2.75  81 2.75  79 2.77  62 2.85
                            61 2.87  58 3.02
  79  0.745  0.234  0.606-   3 2.00   6 2.17  58 2.75  78 2.77  75 2.79  80 2.82  67 2.82  62 2.84
                            59 2.98  63 3.01
  80  0.758  0.490  0.601-   3 1.95  81 2.70  68 2.71  63 2.75  64 2.76  76 2.79  59 2.80  79 2.82
                            60 2.89
  81  0.732  0.734  0.605-   4 2.04   5 2.18  60 2.70  80 2.70  77 2.75  78 2.75  69 2.77  64 2.85
                            61 2.87  65 3.02
 
  LATTYP: Found a simple tetragonal cell.
 ALAT       =    10.9820000000
 C/A-ratio  =     2.7317428519
  
  Lattice vectors:
  
 A1 = (  10.9820000000,   0.0000000000,   0.0000000000)
 A2 = (   0.0000000000,  10.9820000000,   0.0000000000)
 A3 = (   0.0000000000,   0.0000000000,  30.0000000000)


Analysis of symmetry for initial positions (statically):
=====================================================================
 Subroutine PRICEL returns:
 Original cell was already a primitive cell.
 

 Routine SETGRP: Setting up the symmetry group for a 
 simple tetragonal supercell.


 Subroutine GETGRP returns: Found  1 space group operations
 (whereof  1 operations were pure point group operations)
 out of a pool of 16 trial point group operations.


The static configuration has the point symmetry C_1 .


Analysis of symmetry for dynamics (positions and initial velocities):
=====================================================================
 Subroutine PRICEL returns:
 Original cell was already a primitive cell.
 

 Routine SETGRP: Setting up the symmetry group for a 
 simple tetragonal supercell.


 Subroutine GETGRP returns: Found  1 space group operations
 (whereof  1 operations were pure point group operations)
 out of a pool of 16 trial point group operations.


The dynamic configuration has the point symmetry C_1 .


Analysis of constrained symmetry for selective dynamics:
=====================================================================
 Subroutine PRICEL returns:
 Original cell was already a primitive cell.
 

 Routine SETGRP: Setting up the symmetry group for a 
 simple tetragonal supercell.


 Subroutine GETGRP returns: Found  1 space group operations
 (whereof  1 operations were pure point group operations)
 out of a pool of 16 trial point group operations.


The constrained configuration has the point symmetry C_1 .


Analysis of structural, dynamic, and magnetic symmetry:
=====================================================================
 Subroutine PRICEL returns:
 Original cell was already a primitive cell.
 

 Routine SETGRP: Setting up the symmetry group for a 
 simple tetragonal supercell.


 Subroutine GETGRP returns: Found  1 space group operations
 (whereof  1 operations were pure point group operations)
 out of a pool of 16 trial point group operations.


The magnetic configuration has the point symmetry C_1 .


 Subroutine INISYM returns: Found  1 space group operations
 (whereof  1 operations are pure point group operations),
 and found     1 'primitive' translations

 
 
 KPOINTS: K-Point Grid                            

Automatic generation of k-mesh.
Space group operators:
 irot       det(A)        alpha          n_x          n_y          n_z        tau_x        tau_y        tau_z
    1     1.000000     0.000001     1.000000     0.000000     0.000000     0.000000     0.000000     0.000000
 
 Subroutine IBZKPT returns following result:
 ===========================================
 
 Found      8 irreducible k-points:
 
 Following reciprocal coordinates:
            Coordinates               Weight
  0.125000  0.125000  0.000000      2.000000
  0.375000  0.125000  0.000000      2.000000
 -0.375000  0.125000  0.000000      2.000000
 -0.125000  0.125000  0.000000      2.000000
  0.125000  0.375000  0.000000      2.000000
  0.375000  0.375000  0.000000      2.000000
 -0.375000  0.375000  0.000000      2.000000
 -0.125000  0.375000  0.000000      2.000000
 
 Following cartesian coordinates:
            Coordinates               Weight
  0.011382  0.011382  0.000000      2.000000
  0.034147  0.011382  0.000000      2.000000
 -0.034147  0.011382  0.000000      2.000000
 -0.011382  0.011382  0.000000      2.000000
  0.011382  0.034147  0.000000      2.000000
  0.034147  0.034147  0.000000      2.000000
 -0.034147  0.034147  0.000000      2.000000
 -0.011382  0.034147  0.000000      2.000000
 


--------------------------------------------------------------------------------------------------------




 Dimension of arrays:
   k-points           NKPTS =      8   k-points in BZ     NKDIM =      8   number of bands    NBANDS=    576
   number of dos      NEDOS =   1200   number of ions     NIONS =     81
   non local maximal  LDIM  =      6   non local SUM 2l+1 LMDIM =     18
   total plane-waves  NPLWV = ******
   max r-space proj   IRMAX =   5807   max aug-charges    IRDMAX=  13820
   dimension x,y,z NGX =    72 NGY =   72 NGZ =  196
   dimension x,y,z NGXF=   144 NGYF=  144 NGZF=  392
   support grid    NGXF=   144 NGYF=  144 NGZF=  392
   ions per type =               9   8  64
   NGX,Y,Z   is equivalent  to a cutoff of  10.90, 10.90, 10.86 a.u.
   NGXF,Y,Z  is equivalent  to a cutoff of  21.80, 21.80, 21.72 a.u.

 SYSTEM =  Pd_100_surface                          
 POSCAR =  N O Pd                                  

 Startparameter for this run:
   NWRITE =      2    write-flag & timer
   PREC   = accura    normal or accurate (medium, high low for compatibility)
   ISTART =      0    job   : 0-new  1-cont  2-samecut
   ICHARG =      2    charge: 1-file 2-atom 10-const
   ISPIN  =      2    spin polarized calculation?
   LNONCOLLINEAR =      F non collinear calculations
   LSORBIT =      F    spin-orbit coupling
   INIWAV =      1    electr: 0-lowe 1-rand  2-diag
   LASPH  =      F    aspherical Exc in radial PAW
   METAGGA=      F    non-selfconsistent MetaGGA calc.

 Electronic Relaxation 1
   ENCUT  =  400.0 eV  29.40 Ry    5.42 a.u.  17.91 17.91 48.92*2*pi/ulx,y,z
   ENINI  =  400.0     initial cutoff
   ENAUG  =  627.1 eV  augmentation charge cutoff
   NELM   =    100;   NELMIN=  2; NELMDL=  0     # of ELM steps 
   EDIFF  = 0.1E-04   stopping-criterion for ELM
   LREAL  =      T    real-space projection
   NLSPLINE    = F    spline interpolate recip. space projectors
   LCOMPAT=      F    compatible to vasp.4.4
   GGA_COMPAT  = T    GGA compatible to vasp.4.4-vasp.4.6
   LMAXPAW     = -100 max onsite density
   LMAXMIX     =    2 max onsite mixed and CHGCAR
   VOSKOWN=      0    Vosko Wilk Nusair interpolation
   ROPT   =   -0.00025  -0.00025  -0.00025
 Ionic relaxation
   EDIFFG = -.2E-01   stopping-criterion for IOM
   NSW    =    300    number of steps for IOM
   NBLOCK =      1;   KBLOCK =    300    inner block; outer block 
   IBRION =      2    ionic relax: 0-MD 1-quasi-New 2-CG
   NFREE  =      1    steps in history (QN), initial steepest desc. (CG)
   ISIF   =      2    stress and relaxation
   IWAVPR =     11    prediction:  0-non 1-charg 2-wave 3-comb
   ISYM   =      2    0-nonsym 1-usesym 2-fastsym
   LCORR  =      T    Harris-Foulkes like correction to forces

   POTIM  = 0.5000    time-step for ionic-motion
   TEIN   =    0.0    initial temperature
   TEBEG  =    0.0;   TEEND  =   0.0 temperature during run
   SMASS  =  -3.00    Nose mass-parameter (am)
   estimated Nose-frequenzy (Omega)   =  0.10E-29 period in steps =****** mass=  -0.276E-26a.u.
   SCALEE = 1.0000    scale energy and forces
   NPACO  =    256;   APACO  = 16.0  distance and # of slots for P.C.
   PSTRESS=    0.0 pullay stress

  Mass of Ions in am
   POMASS =  14.00 16.00106.42
  Ionic Valenz
   ZVAL   =   5.00  6.00 10.00
  Atomic Wigner-Seitz radii
   RWIGS  =  -1.00 -1.00 -1.00
  virtual crystal weights 
   VCA    =   1.00  1.00  1.00
   NELECT =     733.0000    total number of electrons
   NUPDOWN=      -1.0000    fix difference up-down

 DOS related values:
   EMIN   =  10.00;   EMAX   =-10.00  energy-range for DOS
   EFERMI =   0.00
   ISMEAR =     1;   SIGMA  =   0.20  broadening in eV -4-tet -1-fermi 0-gaus

 Electronic relaxation 2 (details)
   IALGO  =     68    algorithm
   LDIAG  =      T    sub-space diagonalisation (order eigenvalues)
   LSUBROT=      F    optimize rotation matrix (better conditioning)
   TURBO    =      0    0=normal 1=particle mesh
   IRESTART =      0    0=no restart 2=restart with 2 vectors
   NREBOOT  =      0    no. of reboots
   NMIN     =      0    reboot dimension
   EREF     =   0.00    reference energy to select bands
   IMIX   =      4    mixing-type and parameters
     AMIX     =   0.40;   BMIX     =  1.00
     AMIX_MAG =   1.60;   BMIX_MAG =  1.00
     AMIN     =   0.10
     WC   =   100.;   INIMIX=   1;  MIXPRE=   1;  MAXMIX= -45

 Intra band minimization:
   WEIMIN = 0.0010     energy-eigenvalue tresh-hold
   EBREAK =  0.43E-08  absolut break condition
   DEPER  =   0.30     relativ break condition  

   TIME   =   0.40     timestep for ELM

  volume/ion in A,a.u.               =      44.67       301.44
  Fermi-wavevector in a.u.,A,eV,Ry     =   0.961497  1.816967 12.578276  0.924477
  Thomas-Fermi vector in A             =   2.090874
 
 Write flags
   LWAVE        =      F    write WAVECAR
   LDOWNSAMPLE  =      F    k-point downsampling of WAVECAR
   LCHARG       =      F    write CHGCAR
   LVTOT        =      F    write LOCPOT, total local potential
   LVHAR        =      F    write LOCPOT, Hartree potential only
   LELF         =      F    write electronic localiz. function (ELF)
   LORBIT       =     11    0 simple, 1 ext, 2 COOP (PROOUT), +10 PAW based schemes


 Dipole corrections
   LMONO  =      F    monopole corrections only (constant potential shift)
   LDIPOL =      T    correct potential (dipole corrections)
   IDIPOL =      3    1-x, 2-y, 3-z, 4-all directions 
   EPSILON=  1.0000000 bulk dielectric constant

 Exchange correlation treatment:
   GGA     =    --    GGA type
   LEXCH   =     8    internal setting for exchange type
   VOSKOWN=      0    Vosko Wilk Nusair interpolation
   LHFCALC =     F    Hartree Fock is set to
   LHFONE  =     F    Hartree Fock one center treatment
   AEXX    =    0.0000 exact exchange contribution

 Linear response parameters
   LEPSILON=     F    determine dielectric tensor
   LRPA    =     F    only Hartree local field effects (RPA)
   LNABLA  =     F    use nabla operator in PAW spheres
   LVEL    =     F    velocity operator in full k-point grid
   LINTERFAST=   F  fast interpolation
   KINTER  =     0    interpolate to denser k-point grid
   CSHIFT  =0.1000    complex shift for real part using Kramers Kronig
   OMEGAMAX=  -1.0    maximum frequency
   DEG_THRESHOLD= 0.2000000E-02 threshold for treating states as degnerate
   RTIME   =   -0.100 relaxation time in fs
  (WPLASMAI=    0.000 imaginary part of plasma frequency in eV, 0.658/RTIME)
   DFIELD  = 0.0000000 0.0000000 0.0000000 field for delta impulse in time
 
 Orbital magnetization related:
   ORBITALMAG=     F  switch on orbital magnetization
   LCHIMAG   =     F  perturbation theory with respect to B field
   DQ        =  0.001000  dq finite difference perturbation B field
   LLRAUG    =     F  two centre corrections for induced B field



--------------------------------------------------------------------------------------------------------


 conjugate gradient relaxation of ions
   using selective dynamics as specified on POSCAR
 charge density and potential will be updated during run
 spin polarized calculation
 RMM-DIIS sequential band-by-band and
  variant of blocked Davidson during initial phase
 perform sub-space diagonalisation
    before iterative eigenvector-optimisation
 modified Broyden-mixing scheme, WC =      100.0
 initial mixing is a Kerker type mixing with AMIX =  0.4000 and BMIX =      1.0000
 Hartree-type preconditioning will be used
 using additional bands          209
 real space projection scheme for non local part
 use partial core corrections
 calculate Harris-corrections to forces 
   (improved forces if not selfconsistent)
 use gradient corrections 
 use of overlap-Matrix (Vanderbilt PP)
 Methfessel and Paxton  Order N= 1 SIGMA  =   0.20


--------------------------------------------------------------------------------------------------------


  energy-cutoff  :      400.00
  volume of cell :     3618.13
      direct lattice vectors                 reciprocal lattice vectors
    10.982000000  0.000000000  0.000000000     0.091058095  0.000000000  0.000000000
     0.000000000 10.982000000  0.000000000     0.000000000  0.091058095  0.000000000
     0.000000000  0.000000000 30.000000000     0.000000000  0.000000000  0.033333333

  length of vectors
    10.982000000 10.982000000 30.000000000     0.091058095  0.091058095  0.033333333


 
 k-points in units of 2pi/SCALE and weight: K-Point Grid                            
   0.01138226  0.01138226  0.00000000       0.125
   0.03414679  0.01138226  0.00000000       0.125
  -0.03414679  0.01138226  0.00000000       0.125
  -0.01138226  0.01138226  0.00000000       0.125
   0.01138226  0.03414679  0.00000000       0.125
   0.03414679  0.03414679  0.00000000       0.125
  -0.03414679  0.03414679  0.00000000       0.125
  -0.01138226  0.03414679  0.00000000       0.125
 
 k-points in reciprocal lattice and weights: K-Point Grid                            
   0.12500000  0.12500000  0.00000000       0.125
   0.37500000  0.12500000  0.00000000       0.125
  -0.37500000  0.12500000  0.00000000       0.125
  -0.12500000  0.12500000  0.00000000       0.125
   0.12500000  0.37500000  0.00000000       0.125
   0.37500000  0.37500000  0.00000000       0.125
  -0.37500000  0.37500000  0.00000000       0.125
  -0.12500000  0.37500000  0.00000000       0.125
 
 position of ions in fractional coordinates (direct lattice) 
   0.48342070  0.38039704  0.64912697
   0.41084860  0.91481927  0.64590026
   0.76828203  0.36993483  0.64898828
   0.83964501  0.83524502  0.64574126
   0.58559941  0.66064026  0.64579532
   0.66479876  0.08957735  0.64585028
   0.11987515  0.73209822  0.64896729
   0.12993787  0.01655047  0.64909732
   0.12501752  0.37487638  0.62014597
   0.49541686  0.37040463  0.68851241
   0.41365272  0.91410729  0.68611410
   0.75747496  0.37999832  0.68841645
   0.83711069  0.83582223  0.68596265
   0.58657492  0.66318006  0.68601665
   0.66419826  0.08697807  0.68606741
   0.12996202  0.74325669  0.68837877
   0.11962166  0.00489871  0.68848186
   0.12499955  0.12499955  0.40293227
   0.12499955  0.37499864  0.40293227
   0.12499955  0.62499774  0.40293227
   0.12499955  0.87499683  0.40293227
   0.37499864  0.12499955  0.40293227
   0.37499864  0.37499864  0.40293227
   0.37499864  0.62499774  0.40293227
   0.37499864  0.87499683  0.40293227
   0.62499774  0.12499955  0.40293227
   0.62499774  0.37499864  0.40293227
   0.62499774  0.62499774  0.40293227
   0.62499774  0.87499683  0.40293227
   0.87499683  0.12499955  0.40293227
   0.87499683  0.37499864  0.40293227
   0.87499683  0.62499774  0.40293227
   0.87499683  0.87499683  0.40293227
   0.00023752  0.99882927  0.46822725
   0.99937099  0.24761261  0.46778302
   0.99783664  0.50048486  0.46777154
   0.99826415  0.75013619  0.46789747
   0.25173590  0.99969420  0.46793314
   0.25240582  0.24924879  0.46777092
   0.25070796  0.50221730  0.46776952
   0.24973170  0.75104065  0.46830217
   0.50088441  0.00086503  0.46883243
   0.50117926  0.25018923  0.46822072
   0.50018010  0.50165477  0.46786980
   0.49909923  0.75092233  0.46878852
   0.75082666  0.99909344  0.46879039
   0.74982095  0.24822070  0.46789971
   0.74892767  0.49975120  0.46818656
   0.74913786  0.74921758  0.46879849
   0.12968099  0.12175405  0.53237271
   0.12518298  0.37480376  0.52938435
   0.12049204  0.62791179  0.53234810
   0.12489148  0.87492633  0.53325118
   0.37848092  0.12669393  0.53530850
   0.37816792  0.37949726  0.53238455
   0.37336049  0.62832849  0.53525784
   0.37423796  0.87807920  0.53500352
   0.62813627  0.12567183  0.53497914
   0.62491010  0.37506901  0.53319009
   0.62193156  0.62436852  0.53488733
   0.62494792  0.87500638  0.53439185
   0.87675967  0.12148330  0.53525154
   0.87179897  0.37039145  0.53231522
   0.87157245  0.62325721  0.53516641
   0.87554859  0.87180257  0.53495404
   0.01042820  0.00721818  0.60121344
   0.00040752  0.25414853  0.59881963
   0.00435159  0.49960340  0.59884465
   0.98360166  0.75477968  0.60561601
   0.26650223  0.99469062  0.60579332
   0.24587398  0.25002720  0.59905771
   0.24986520  0.49548702  0.59899768
   0.23977152  0.74227152  0.60118408
   0.51785877  0.01646905  0.60463618
   0.49278426  0.26069733  0.60128410
   0.50526536  0.51664613  0.60570899
   0.48379306  0.76805200  0.60468651
   0.76611075  0.98215534  0.60463054
   0.74513585  0.23360133  0.60570401
   0.75751045  0.48959304  0.60115610
   0.73213444  0.73371054  0.60452058
 
 position of ions in cartesian coordinates  (Angst):
   5.30892616  4.17752027 19.47380923
   4.51193934 10.04654518 19.37700767
   8.43727326  4.06262428 19.46964852
   9.22098154  9.17266086 19.37223792
   6.43105276  7.25515134 19.37385974
   7.30082003  0.98373841 19.37550852
   1.31646894  8.03990260 19.46901876
   1.42697763  0.18175731 19.47291971
   1.37294244  4.11689242 18.60437904
   5.44066792  4.06778369 20.65537223
   4.54273421 10.03872629 20.58342289
   8.31859006  4.17314156 20.65249363
   9.19314956  9.17899970 20.57887956
   6.44176572  7.28304345 20.58049965
   7.29422527  0.95519318 20.58202240
   1.42724289  8.16244493 20.65136321
   1.31368502  0.05379761 20.65445578
   1.37274503  1.37274503 12.08796804
   1.37274503  4.11823509 12.08796804
   1.37274503  6.86372514 12.08796804
   1.37274503  9.60921520 12.08796804
   4.11823509  1.37274503 12.08796804
   4.11823509  4.11823509 12.08796804
   4.11823509  6.86372514 12.08796804
   4.11823509  9.60921520 12.08796804
   6.86372514  1.37274503 12.08796804
   6.86372514  4.11823509 12.08796804
   6.86372514  6.86372514 12.08796804
   6.86372514  9.60921520 12.08796804
   9.60921520  1.37274503 12.08796804
   9.60921520  4.11823509 12.08796804
   9.60921520  6.86372514 12.08796804
   9.60921520  9.60921520 12.08796804
   0.00260841 10.96914302 14.04681740
  10.97509222  2.71928164 14.03349073
  10.95824194  5.49632469 14.03314630
  10.96293686  8.23799569 14.03692416
   2.76456360 10.97864166 14.03799418
   2.77192074  2.73725023 14.03312751
   2.75327482  5.51535043 14.03308567
   2.74255354  8.24792841 14.04906525
   5.50071264  0.00949979 14.06497284
   5.50395069  2.74757817 14.04662174
   5.49297790  5.50917272 14.03609401
   5.48110769  8.24662900 14.06365572
   8.24557840 10.97204421 14.06371158
   8.23453369  2.72595975 14.03699139
   8.22472372  5.48826766 14.04559686
   8.22703200  8.22790748 14.06395476
   1.42415663  1.33710297 15.97118131
   1.37475953  4.11609491 15.88153053
   1.32324355  6.89572724 15.97044287
   1.37155820  9.60844099 15.99753554
   4.15647745  1.39135274 16.05925493
   4.15304010  4.16763896 15.97153655
   4.10024494  6.90030345 16.05773515
   4.10988133  9.64306574 16.05010546
   6.89819250  1.38012802 16.04937434
   6.86276267  4.11900788 15.99570267
   6.83005243  6.85681509 16.04661995
   6.86317803  9.60932005 16.03175558
   9.62857469  1.33412963 16.05754630
   9.57409626  4.06763889 15.96945667
   9.57160866  6.84461067 16.05499221
   9.61527458  9.57413584 16.04862131
   0.11452247  0.07927004 18.03640309
   0.00447544  2.79105912 17.96458885
   0.04778915  5.48664454 17.96533937
  10.80191342  8.28899042 18.16848042
   2.92672748 10.92369238 18.17379966
   2.70018806  2.74579874 17.97173143
   2.74401960  5.44143846 17.96993048
   2.63317085  8.15162582 18.03552233
   5.68712502  0.18086312 18.13908551
   5.41175679  2.86297808 18.03852308
   5.54882414  5.67380775 18.17126959
   5.31301539  8.43474703 18.14059519
   8.41342827 10.78602991 18.13891620
   8.18308189  2.56540978 18.17112034
   8.31897981  5.37671072 18.03468311
   8.04030038  8.05760912 18.13561740
 


--------------------------------------------------------------------------------------------------------


 k-point  1 :   0.1250 0.1250 0.0000  plane waves:   65671
 k-point  2 :   0.3750 0.1250 0.0000  plane waves:   65719
 k-point  3 :  -0.3750 0.1250 0.0000  plane waves:   65719
 k-point  4 :  -0.1250 0.1250 0.0000  plane waves:   65671
 k-point  5 :   0.1250 0.3750 0.0000  plane waves:   65719
 k-point  6 :   0.3750 0.3750 0.0000  plane waves:   65776
 k-point  7 :  -0.3750 0.3750 0.0000  plane waves:   65776
 k-point  8 :  -0.1250 0.3750 0.0000  plane waves:   65719

 maximum and minimum number of plane-waves per node :     65776    65671

 maximum number of plane-waves:     65776
 maximum index in each direction: 
   IXMAX=   18   IYMAX=   17   IZMAX=   48
   IXMIN=  -18   IYMIN=  -18   IZMIN=  -48


 serial   3D FFT for wavefunctions
 parallel 3D FFT for charge:
    minimum data exchange during FFTs selected (reduces bandwidth)


 total amount of memory used by VASP MPI-rank0   233745. kBytes
=======================================================================

   base      :      30000. kBytes
   nonlr-proj:      57191. kBytes
   fftplans  :       5987. kBytes
   grid      :      86439. kBytes
   one-center:       2519. kBytes
   wavefun   :      51609. kBytes
 
     INWAV:  cpu time    0.0000: real time    0.0000
 Broyden mixing: mesh for mixing (old mesh)
   NGX = 35   NGY = 35   NGZ = 97
  (NGX  =144   NGY  =144   NGZ  =392)
  gives a total of 118825 points

 initial charge density was supplied:
 charge density of overlapping atoms calculated
 number of electron     733.0000000 magnetization      81.0000000
 keeping initial charge density in first step


--------------------------------------------------------------------------------------------------------


 Maximum index for non-local projection operator         5601
 Maximum index for augmentation-charges          676 (set IRDMAX)


--------------------------------------------------------------------------------------------------------


 First call to EWALD:  gamma=   0.115
 Maximum number of real-space cells 4x 4x 2
 Maximum number of reciprocal cells 2x 2x 5

    FEWALD:  cpu time    0.0582: real time    0.0396


--------------------------------------- Iteration      1(   1)  ---------------------------------------


    POTLOK:  cpu time    1.0084: real time    1.4571
    SETDIJ:  cpu time    0.1884: real time    0.0983
     EDDAV:  cpu time  144.0097: real time   77.1769
       DOS:  cpu time    0.3067: real time    1.8105
    --------------------------------------------
      LOOP:  cpu time  145.5326: real time   80.5620

 eigenvalue-minimisations  : 18432
 total energy-change (2. order) : 0.3983278E+04  (-0.2850645E+05)
 number of electron     733.0000000 magnetization      81.0000000
 augmentation part      733.0000000 magnetization      81.0000000

 DIPCOR: dipole corrections for dipol
 direction  3 min pos     1,
 dipolmoment           0.000000      0.000000     -0.000446 electrons x Angstroem
 Tr[quadrupol]    -14916.287070

 energy correction for charged system         0.000000 eV
 dipol+quadrupol energy correction           -0.000000 eV
 added-field ion interaction          0.011157 eV  (added to PSCEN)


 Free energy of the ion-electron system (eV)
  ---------------------------------------------------
  alpha Z        PSCENC =       921.88662291
  Ewald energy   TEWEN  =    428117.98884289
  -Hartree energ DENC   =   -485951.62463045
  -exchange      EXHF   =         0.00000000
  -V(xc)+E(xc)   XCENC  =     -1475.30559275
  PAW double counting   =     56239.88197334   -52283.09525828
  entropy T*S    EENTRO =        -0.00660361
  eigenvalues    EBANDS =       751.56251263
  atomic energy  EATOM  =     57661.98971508
  Solvation  Ediel_sol  =         0.00000000
  ---------------------------------------------------
  free energy    TOTEN  =      3983.27758177 eV

  energy without entropy =     3983.28418537  energy(sigma->0) =     3983.27978297


--------------------------------------------------------------------------------------------------------




--------------------------------------- Iteration      1(   2)  ---------------------------------------


     EDDAV:  cpu time  168.9354: real time   96.1063
       DOS:  cpu time    0.2987: real time    0.3764
    --------------------------------------------
      LOOP:  cpu time  169.2155: real time   96.4642

 eigenvalue-minimisations  : 19968
 total energy-change (2. order) :-0.4220823E+04  (-0.3960949E+04)
 number of electron     733.0000000 magnetization      81.0000000
 augmentation part      733.0000000 magnetization      81.0000000

 DIPCOR: dipole corrections for dipol
 direction  3 min pos     1,
 dipolmoment           0.000000      0.000000     -0.000446 electrons x Angstroem
 Tr[quadrupol]    -14916.287070

 energy correction for charged system         0.000000 eV
 dipol+quadrupol energy correction           -0.000000 eV
 added-field ion interaction          0.011157 eV  (added to PSCEN)


 Free energy of the ion-electron system (eV)
  ---------------------------------------------------
  alpha Z        PSCENC =       921.88662291
  Ewald energy   TEWEN  =    428117.98884289
  -Hartree energ DENC   =   -485951.62463045
  -exchange      EXHF   =         0.00000000
  -V(xc)+E(xc)   XCENC  =     -1475.30559275
  PAW double counting   =     56239.88197334   -52283.09525828
  entropy T*S    EENTRO =        -0.06466965
  eigenvalues    EBANDS =     -3469.20227341
  atomic energy  EATOM  =     57661.98971508
  Solvation  Ediel_sol  =         0.00000000
  ---------------------------------------------------
  free energy    TOTEN  =      -237.54527032 eV

  energy without entropy =     -237.48060067  energy(sigma->0) =     -237.52371377


--------------------------------------------------------------------------------------------------------




--------------------------------------- Iteration      1(   3)  ---------------------------------------


     EDDAV:  cpu time  207.5187: real time  106.9089
       DOS:  cpu time    0.3965: real time    0.7011
    --------------------------------------------
      LOOP:  cpu time  207.9179: real time  107.6127

 eigenvalue-minimisations  : 23232
 total energy-change (2. order) :-0.2051035E+03  (-0.1931468E+03)
 number of electron     733.0000000 magnetization      81.0000000
 augmentation part      733.0000000 magnetization      81.0000000

 DIPCOR: dipole corrections for dipol
 direction  3 min pos     1,
 dipolmoment           0.000000      0.000000     -0.000446 electrons x Angstroem
 Tr[quadrupol]    -14916.287070

 energy correction for charged system         0.000000 eV
 dipol+quadrupol energy correction           -0.000000 eV
 added-field ion interaction          0.011157 eV  (added to PSCEN)


 Free energy of the ion-electron system (eV)
  ---------------------------------------------------
  alpha Z        PSCENC =       921.88662291
  Ewald energy   TEWEN  =    428117.98884289
  -Hartree energ DENC   =   -485951.62463045
  -exchange      EXHF   =         0.00000000
  -V(xc)+E(xc)   XCENC  =     -1475.30559275
  PAW double counting   =     56239.88197334   -52283.09525828
  entropy T*S    EENTRO =        -0.04916248
  eigenvalues    EBANDS =     -3674.32129736
  atomic energy  EATOM  =     57661.98971508
  Solvation  Ediel_sol  =         0.00000000
  ---------------------------------------------------
  free energy    TOTEN  =      -442.64878709 eV

  energy without entropy =     -442.59962462  energy(sigma->0) =     -442.63239960


--------------------------------------------------------------------------------------------------------




--------------------------------------- Iteration      1(   4)  ---------------------------------------


     EDDAV:  cpu time  192.3036: real time  102.5136
       DOS:  cpu time    0.2718: real time    0.7844
    --------------------------------------------
      LOOP:  cpu time  192.5755: real time  103.2982

 eigenvalue-minimisations  : 22080
 total energy-change (2. order) :-0.3605996E+01  (-0.3601177E+01)
 number of electron     733.0000000 magnetization      81.0000000
 augmentation part      733.0000000 magnetization      81.0000000

 DIPCOR: dipole corrections for dipol
 direction  3 min pos     1,
 dipolmoment           0.000000      0.000000     -0.000446 electrons x Angstroem
 Tr[quadrupol]    -14916.287070

 energy correction for charged system         0.000000 eV
 dipol+quadrupol energy correction           -0.000000 eV
 added-field ion interaction          0.011157 eV  (added to PSCEN)


 Free energy of the ion-electron system (eV)
  ---------------------------------------------------
  alpha Z        PSCENC =       921.88662291
  Ewald energy   TEWEN  =    428117.98884289
  -Hartree energ DENC   =   -485951.62463045
  -exchange      EXHF   =         0.00000000
  -V(xc)+E(xc)   XCENC  =     -1475.30559275
  PAW double counting   =     56239.88197334   -52283.09525828
  entropy T*S    EENTRO =        -0.04844211
  eigenvalues    EBANDS =     -3677.92801390
  atomic energy  EATOM  =     57661.98971508
  Solvation  Ediel_sol  =         0.00000000
  ---------------------------------------------------
  free energy    TOTEN  =      -446.25478327 eV

  energy without entropy =     -446.20634116  energy(sigma->0) =     -446.23863590


--------------------------------------------------------------------------------------------------------




--------------------------------------- Iteration      1(   5)  ---------------------------------------


     EDDAV:  cpu time  291.7605: real time  157.1513
       DOS:  cpu time    0.4215: real time    1.4739
    CHARGE:  cpu time    4.5617: real time    3.9889
    MIXING:  cpu time    0.0282: real time    0.3663
    --------------------------------------------
      LOOP:  cpu time  296.7686: real time  163.1181

 eigenvalue-minimisations  : 28800
 total energy-change (2. order) :-0.1064652E+00  (-0.1064592E+00)
 number of electron     732.9999781 magnetization      77.5438833
 augmentation part      263.8781220 magnetization      63.3662362

 DIPCOR: dipole corrections for dipol
 direction  3 min pos     1,
 dipolmoment           0.000000      0.000000     -0.000446 electrons x Angstroem
 Tr[quadrupol]    -14916.287070

 energy correction for charged system         0.000000 eV
 dipol+quadrupol energy correction           -0.000000 eV
 added-field ion interaction          0.011157 eV  (added to PSCEN)


 Broyden mixing:
  rms(total) = 0.70678E+01    rms(broyden)= 0.70655E+01
  rms(prec ) = 0.71617E+01
  weight for this iteration     100.00

 Free energy of the ion-electron system (eV)
  ---------------------------------------------------
  alpha Z        PSCENC =       921.88662291
  Ewald energy   TEWEN  =    428117.98884289
  -Hartree energ DENC   =   -485951.62463045
  -exchange      EXHF   =         0.00000000
  -V(xc)+E(xc)   XCENC  =     -1475.30559275
  PAW double counting   =     56239.88197334   -52283.09525828
  entropy T*S    EENTRO =        -0.04837184
  eigenvalues    EBANDS =     -3678.03454941
  atomic energy  EATOM  =     57661.98971508
  Solvation  Ediel_sol  =         0.00000000
  ---------------------------------------------------
  free energy    TOTEN  =      -446.36124851 eV

  energy without entropy =     -446.31287667  energy(sigma->0) =     -446.34512457


--------------------------------------------------------------------------------------------------------




--------------------------------------- Iteration      1(   6)  ---------------------------------------


    POTLOK:  cpu time    0.3571: real time    2.2756
    SETDIJ:  cpu time    1.3361: real time    1.2005
    EDDIAG:  cpu time   15.6715: real time    7.8680
  RMM-DIIS:  cpu time   35.4921: real time   17.8638
    ORTHCH:  cpu time    4.0963: real time    2.1292
       DOS:  cpu time    0.3702: real time    0.7506
    CHARGE:  cpu time    2.2594: real time    2.4529
    MIXING:  cpu time    0.1707: real time    0.1934
    --------------------------------------------
      LOOP:  cpu time   59.7533: real time   34.5933

 eigenvalue-minimisations  : 18432
 total energy-change (2. order) : 0.3949256E+02  (-0.1301256E+02)
 number of electron     732.9999804 magnetization      75.3223628
 augmentation part      279.8056048 magnetization      60.9630305

 DIPCOR: dipole corrections for dipol
 direction  3 min pos     1,
 dipolmoment           0.000000      0.000000      0.353001 electrons x Angstroem
 Tr[quadrupol]    -14913.612958

 energy correction for charged system         0.000000 eV
 dipol+quadrupol energy correction           -0.003116 eV
 added-field ion interaction         -8.837730 eV  (added to PSCEN)


 Broyden mixing:
  rms(total) = 0.60912E+01    rms(broyden)= 0.60870E+01
  rms(prec ) = 0.63742E+01
  weight for this iteration     100.00

 eigenvalues of (default mixing * dielectric matrix)
  average eigenvalue GAMMA=   0.6784
  0.6784

 Free energy of the ion-electron system (eV)
  ---------------------------------------------------
  alpha Z        PSCENC =       913.03462030
  Ewald energy   TEWEN  =    428117.98884289
  -Hartree energ DENC   =   -485512.30525250
  -exchange      EXHF   =         0.00000000
  -V(xc)+E(xc)   XCENC  =     -1451.47316722
  PAW double counting   =     61157.83968347   -57286.42030391
  entropy T*S    EENTRO =         0.06125612
  eigenvalues    EBANDS =     -4007.58407800
  atomic energy  EATOM  =     57661.98971508
  Solvation  Ediel_sol  =         0.00000000
  ---------------------------------------------------
  free energy    TOTEN  =      -406.86868377 eV

  energy without entropy =     -406.92993988  energy(sigma->0) =     -406.88910247


--------------------------------------------------------------------------------------------------------




--------------------------------------- Iteration      1(   7)  ---------------------------------------


    POTLOK:  cpu time    0.1793: real time    0.2249
    SETDIJ:  cpu time    0.0359: real time    0.0224
    EDDIAG:  cpu time   16.3201: real time    8.1902
  RMM-DIIS:  cpu time   36.1730: real time   18.8823
    ORTHCH:  cpu time    4.5680: real time    3.2697
       DOS:  cpu time    0.1745: real time    0.1699
    CHARGE:  cpu time    2.6162: real time    2.8228
    MIXING:  cpu time    0.0041: real time    0.1378
    --------------------------------------------
      LOOP:  cpu time   60.0712: real time   33.7719

 eigenvalue-minimisations  : 18452
 total energy-change (2. order) : 0.7563037E+01  (-0.4483683E+01)
 number of electron     732.9999738 magnetization      71.7482289
 augmentation part      273.0360231 magnetization      57.1472313

 DIPCOR: dipole corrections for dipol
 direction  3 min pos     1,
 dipolmoment           0.000000      0.000000      0.359767 electrons x Angstroem
 Tr[quadrupol]    -14930.883930

 energy correction for charged system         0.000000 eV
 dipol+quadrupol energy correction           -0.003237 eV
 added-field ion interaction         -9.007120 eV  (added to PSCEN)


 Broyden mixing:
  rms(total) = 0.46576E+01    rms(broyden)= 0.46532E+01
  rms(prec ) = 0.53257E+01
  weight for this iteration     100.00

 eigenvalues of (default mixing * dielectric matrix)
  average eigenvalue GAMMA=   0.7676
  1.1867  0.3486

 Free energy of the ion-electron system (eV)
  ---------------------------------------------------
  alpha Z        PSCENC =       912.86510987
  Ewald energy   TEWEN  =    428117.98884289
  -Hartree energ DENC   =   -486130.86836027
  -exchange      EXHF   =         0.00000000
  -V(xc)+E(xc)   XCENC  =     -1454.95194075
  PAW double counting   =     63404.05378936   -59546.26750478
  entropy T*S    EENTRO =        -0.04216123
  eigenvalues    EBANDS =     -3364.07313669
  atomic energy  EATOM  =     57661.98971508
  Solvation  Ediel_sol  =         0.00000000
  ---------------------------------------------------
  free energy    TOTEN  =      -399.30564652 eV

  energy without entropy =     -399.26348529  energy(sigma->0) =     -399.29159278


--------------------------------------------------------------------------------------------------------




--------------------------------------- Iteration      1(   8)  ---------------------------------------


    POTLOK:  cpu time    0.1706: real time    1.2122
    SETDIJ:  cpu time    1.3690: real time    1.1694
    EDDIAG:  cpu time   15.9047: real time    8.2207
  RMM-DIIS:  cpu time   36.7459: real time   19.6403
    ORTHCH:  cpu time    7.9937: real time   13.5843
       DOS:  cpu time    0.5635: real time    0.7600
    CHARGE:  cpu time    2.9242: real time    2.6588
    MIXING:  cpu time    0.1395: real time    0.2654
    --------------------------------------------
      LOOP:  cpu time   65.8112: real time   47.4979

 eigenvalue-minimisations  : 18432
 total energy-change (2. order) :-0.1472792E+03  (-0.6488022E+01)
 number of electron     732.9999881 magnetization      69.5808557
 augmentation part      265.1172198 magnetization      54.0260683

 DIPCOR: dipole corrections for dipol
 direction  3 min pos     1,
 dipolmoment           0.000000      0.000000     -3.589230 electrons x Angstroem
 Tr[quadrupol]    -14930.284557

 energy correction for charged system         0.000000 eV
 dipol+quadrupol energy correction           -0.322144 eV
 added-field ion interaction         89.859815 eV  (added to PSCEN)


 Broyden mixing:
  rms(total) = 0.10679E+02    rms(broyden)= 0.10675E+02
  rms(prec ) = 0.14543E+02
  weight for this iteration     100.00

 eigenvalues of (default mixing * dielectric matrix)
  average eigenvalue GAMMA=   0.6666
  1.4536  0.4117  0.1346

 Free energy of the ion-electron system (eV)
  ---------------------------------------------------
  alpha Z        PSCENC =      1011.41313727
  Ewald energy   TEWEN  =    428117.98884289
  -Hartree energ DENC   =   -485924.10724188
  -exchange      EXHF   =         0.00000000
  -V(xc)+E(xc)   XCENC  =     -1446.34061382
  PAW double counting   =     66109.75161234   -62280.16621103
  entropy T*S    EENTRO =         0.00175193
  eigenvalues    EBANDS =     -3797.11585914
  atomic energy  EATOM  =     57661.98971508
  Solvation  Ediel_sol  =         0.00000000
  ---------------------------------------------------
  free energy    TOTEN  =      -546.58486635 eV

  energy without entropy =     -546.58661828  energy(sigma->0) =     -546.58545033


--------------------------------------------------------------------------------------------------------




--------------------------------------- Iteration      1(   9)  ---------------------------------------


    POTLOK:  cpu time    0.3637: real time    0.5507
    SETDIJ:  cpu time    0.4732: real time    0.4636
    EDDIAG:  cpu time   16.3677: real time    8.9098
  RMM-DIIS:  cpu time   35.7308: real time   18.0164
    ORTHCH:  cpu time    5.0446: real time    3.1819
       DOS:  cpu time    0.1783: real time    0.0933
    CHARGE:  cpu time    2.9255: real time    2.6603
    MIXING:  cpu time    0.1359: real time    0.1093
    --------------------------------------------
      LOOP:  cpu time   61.2220: real time   33.9935

 eigenvalue-minimisations  : 18432
 total energy-change (2. order) : 0.1582587E+03  (-0.3856185E+01)
 number of electron     732.9999757 magnetization      66.9291726
 augmentation part      279.8392745 magnetization      54.2434779

 DIPCOR: dipole corrections for dipol
 direction  3 min pos     1,
 dipolmoment           0.000000      0.000000      1.083689 electrons x Angstroem
 Tr[quadrupol]    -14925.525837

 energy correction for charged system         0.000000 eV
 dipol+quadrupol energy correction           -0.029367 eV
 added-field ion interaction        -27.131182 eV  (added to PSCEN)


 Broyden mixing:
  rms(total) = 0.43796E+01    rms(broyden)= 0.43679E+01
  rms(prec ) = 0.49660E+01
  weight for this iteration     100.00

 eigenvalues of (default mixing * dielectric matrix)
  average eigenvalue GAMMA=   0.6700
  1.7457  0.5050  0.3254  0.1037

 Free energy of the ion-electron system (eV)
  ---------------------------------------------------
  alpha Z        PSCENC =       894.71491786
  Ewald energy   TEWEN  =    428117.98884289
  -Hartree energ DENC   =   -485977.31757156
  -exchange      EXHF   =         0.00000000
  -V(xc)+E(xc)   XCENC  =     -1437.62423355
  PAW double counting   =     67525.44943038   -63718.45999424
  entropy T*S    EENTRO =         0.05727459
  eigenvalues    EBANDS =     -3455.12450057
  atomic energy  EATOM  =     57661.98971508
  Solvation  Ediel_sol  =         0.00000000
  ---------------------------------------------------
  free energy    TOTEN  =      -388.32611912 eV

  energy without entropy =     -388.38339371  energy(sigma->0) =     -388.34521065


--------------------------------------------------------------------------------------------------------




--------------------------------------- Iteration      1(  10)  ---------------------------------------


    POTLOK:  cpu time    0.9466: real time    1.6327
    SETDIJ:  cpu time    0.7322: real time    0.5358
    EDDIAG:  cpu time   17.4173: real time    8.9649
  RMM-DIIS:  cpu time   35.4917: real time   18.0540
    ORTHCH:  cpu time    4.5266: real time    2.2927
       DOS:  cpu time    0.0517: real time    0.0446
    CHARGE:  cpu time    3.0369: real time    2.6898
    MIXING:  cpu time    0.0800: real time    0.0743
    --------------------------------------------
      LOOP:  cpu time   62.2845: real time   34.2453

 eigenvalue-minimisations  : 18442
 total energy-change (2. order) : 0.2456719E+02  (-0.1575759E+01)
 number of electron     732.9999776 magnetization      64.9814686
 augmentation part      278.5754509 magnetization      49.6586484

 DIPCOR: dipole corrections for dipol
 direction  3 min pos     1,
 dipolmoment           0.000000      0.000000      0.104477 electrons x Angstroem
 Tr[quadrupol]    -14931.531074

 energy correction for charged system         0.000000 eV
 dipol+quadrupol energy correction           -0.000273 eV
 added-field ion interaction         -2.615679 eV  (added to PSCEN)


 Broyden mixing:
  rms(total) = 0.22391E+01    rms(broyden)= 0.22383E+01
  rms(prec ) = 0.23637E+01
  weight for this iteration     100.00

 eigenvalues of (default mixing * dielectric matrix)
  average eigenvalue GAMMA=   0.6716
  1.8569  0.6368  0.3800  0.3800  0.1042

 Free energy of the ion-electron system (eV)
  ---------------------------------------------------
  alpha Z        PSCENC =       919.25951482
  Ewald energy   TEWEN  =    428117.98884289
  -Hartree energ DENC   =   -486145.18176239
  -exchange      EXHF   =         0.00000000
  -V(xc)+E(xc)   XCENC  =     -1440.12572327
  PAW double counting   =     68791.99532227   -64995.34497388
  entropy T*S    EENTRO =        -0.16888529
  eigenvalues    EBANDS =     -3274.17098377
  atomic energy  EATOM  =     57661.98971508
  Solvation  Ediel_sol  =         0.00000000
  ---------------------------------------------------
  free energy    TOTEN  =      -363.75893355 eV

  energy without entropy =     -363.59004826  energy(sigma->0) =     -363.70263845


--------------------------------------------------------------------------------------------------------




--------------------------------------- Iteration      1(  11)  ---------------------------------------


    POTLOK:  cpu time    0.2808: real time    0.2654
    SETDIJ:  cpu time    0.2201: real time    0.1146
    EDDIAG:  cpu time   20.4821: real time   10.7158
  RMM-DIIS:  cpu time   36.4205: real time   19.0685
    ORTHCH:  cpu time    4.5012: real time    2.2911
       DOS:  cpu time    0.5143: real time    0.3932
    CHARGE:  cpu time    3.5076: real time    3.1396
    MIXING:  cpu time    0.2519: real time    0.2146
    --------------------------------------------
      LOOP:  cpu time   66.1745: real time   36.2020

 eigenvalue-minimisations  : 18466
 total energy-change (2. order) :-0.8156794E+01  (-0.1010174E+01)
 number of electron     732.9999770 magnetization      62.9280930
 augmentation part      278.6161636 magnetization      49.5883409

 DIPCOR: dipole corrections for dipol
 direction  3 min pos     1,
 dipolmoment           0.000000      0.000000      0.502092 electrons x Angstroem
 Tr[quadrupol]    -14931.111923

 energy correction for charged system         0.000000 eV
 dipol+quadrupol energy correction           -0.006304 eV
 added-field ion interaction        -12.570364 eV  (added to PSCEN)


 Broyden mixing:
  rms(total) = 0.29179E+01    rms(broyden)= 0.29175E+01
  rms(prec ) = 0.35086E+01
  weight for this iteration     100.00

 eigenvalues of (default mixing * dielectric matrix)
  average eigenvalue GAMMA=   0.6454
  1.9310  0.7684  0.4124  0.4124  0.1030  0.2451

 Free energy of the ion-electron system (eV)
  ---------------------------------------------------
  alpha Z        PSCENC =       909.29879848
  Ewald energy   TEWEN  =    428117.98884289
  -Hartree energ DENC   =   -486161.15633491
  -exchange      EXHF   =         0.00000000
  -V(xc)+E(xc)   XCENC  =     -1441.97508261
  PAW double counting   =     69067.11521182   -65268.57572228
  entropy T*S    EENTRO =         0.02296649
  eigenvalues    EBANDS =     -3256.62412290
  atomic energy  EATOM  =     57661.98971508
  Solvation  Ediel_sol  =         0.00000000
  ---------------------------------------------------
  free energy    TOTEN  =      -371.91572796 eV

  energy without entropy =     -371.93869444  energy(sigma->0) =     -371.92338345


--------------------------------------------------------------------------------------------------------




--------------------------------------- Iteration      1(  12)  ---------------------------------------


    POTLOK:  cpu time    0.3972: real time    0.4339
    SETDIJ:  cpu time    0.5898: real time    0.3889
    EDDIAG:  cpu time   16.8863: real time    8.4601
  RMM-DIIS:  cpu time   35.8561: real time   18.6809
    ORTHCH:  cpu time    4.5860: real time    2.3405
       DOS:  cpu time    0.4285: real time    0.7613
    CHARGE:  cpu time    3.1997: real time    2.7510
    MIXING:  cpu time    0.0246: real time    0.0128
    --------------------------------------------
      LOOP:  cpu time   61.9683: real time   33.8265

 eigenvalue-minimisations  : 18450
 total energy-change (2. order) : 0.4243083E+01  (-0.3062512E+00)
 number of electron     732.9999772 magnetization      61.7447141
 augmentation part      276.8409536 magnetization      47.7295451

 DIPCOR: dipole corrections for dipol
 direction  3 min pos     1,
 dipolmoment           0.000000      0.000000      0.281197 electrons x Angstroem
 Tr[quadrupol]    -14934.432464

 energy correction for charged system         0.000000 eV
 dipol+quadrupol energy correction           -0.001977 eV
 added-field ion interaction         -7.040030 eV  (added to PSCEN)


 Broyden mixing:
  rms(total) = 0.17950E+01    rms(broyden)= 0.17946E+01
  rms(prec ) = 0.20516E+01
  weight for this iteration     100.00

 eigenvalues of (default mixing * dielectric matrix)
  average eigenvalue GAMMA=   0.6124
  1.9618  0.7637  0.4177  0.4177  0.4114  0.1032  0.2115

 Free energy of the ion-electron system (eV)
  ---------------------------------------------------
  alpha Z        PSCENC =       914.83345858
  Ewald energy   TEWEN  =    428117.98884289
  -Hartree energ DENC   =   -486296.34951539
  -exchange      EXHF   =         0.00000000
  -V(xc)+E(xc)   XCENC  =     -1442.58680979
  PAW double counting   =     69378.06868834   -65578.74528051
  entropy T*S    EENTRO =        -0.05578828
  eigenvalues    EBANDS =     -3122.81595578
  atomic energy  EATOM  =     57661.98971508
  Solvation  Ediel_sol  =         0.00000000
  ---------------------------------------------------
  free energy    TOTEN  =      -367.67264486 eV

  energy without entropy =     -367.61685658  energy(sigma->0) =     -367.65404877


--------------------------------------------------------------------------------------------------------




--------------------------------------- Iteration      1(  13)  ---------------------------------------


    POTLOK:  cpu time    0.4248: real time    0.4434
    SETDIJ:  cpu time    0.0574: real time    0.0341
    EDDIAG:  cpu time   19.0107: real time   12.6327
  RMM-DIIS:  cpu time   35.7276: real time   18.0077
    ORTHCH:  cpu time    4.1539: real time    2.0873
       DOS:  cpu time    0.0191: real time    0.0126
    CHARGE:  cpu time    2.9547: real time    2.6142
    MIXING:  cpu time    0.0138: real time    0.0082
    --------------------------------------------
      LOOP:  cpu time   62.3643: real time   35.8425

 eigenvalue-minimisations  : 18453
 total energy-change (2. order) :-0.1550525E+01  (-0.1205152E+00)
 number of electron     732.9999773 magnetization      58.8439243
 augmentation part      276.4328795 magnetization      44.3381634

 DIPCOR: dipole corrections for dipol
 direction  3 min pos     1,
 dipolmoment           0.000000      0.000000      0.198369 electrons x Angstroem
 Tr[quadrupol]    -14935.298450

 energy correction for charged system         0.000000 eV
 dipol+quadrupol energy correction           -0.000984 eV
 added-field ion interaction         -4.966349 eV  (added to PSCEN)


 Broyden mixing:
  rms(total) = 0.14157E+01    rms(broyden)= 0.14156E+01
  rms(prec ) = 0.15684E+01
  weight for this iteration     100.00

 eigenvalues of (default mixing * dielectric matrix)
  average eigenvalue GAMMA=   0.6234
  1.9417  0.8237  0.8237  0.4683  0.3539  0.1032  0.2363  0.2363

 Free energy of the ion-electron system (eV)
  ---------------------------------------------------
  alpha Z        PSCENC =       916.90813369
  Ewald energy   TEWEN  =    428117.98884289
  -Hartree energ DENC   =   -486327.98822855
  -exchange      EXHF   =         0.00000000
  -V(xc)+E(xc)   XCENC  =     -1445.05492474
  PAW double counting   =     69487.76950203   -65688.29453258
  entropy T*S    EENTRO =        -0.03798429
  eigenvalues    EBANDS =     -3092.50369305
  atomic energy  EATOM  =     57661.98971508
  Solvation  Ediel_sol  =         0.00000000
  ---------------------------------------------------
  free energy    TOTEN  =      -369.22316953 eV

  energy without entropy =     -369.18518523  energy(sigma->0) =     -369.21050810


--------------------------------------------------------------------------------------------------------




--------------------------------------- Iteration      1(  14)  ---------------------------------------


    POTLOK:  cpu time    0.4047: real time    0.3869
    SETDIJ:  cpu time    0.1064: real time    0.0733
    EDDIAG:  cpu time   18.6210: real time    9.3706
  RMM-DIIS:  cpu time   35.8289: real time   17.9632
    ORTHCH:  cpu time    3.9974: real time    2.0016
       DOS:  cpu time    0.0050: real time    0.0025
    CHARGE:  cpu time    2.9635: real time    2.6224
    MIXING:  cpu time    0.0059: real time    0.0030
    --------------------------------------------
      LOOP:  cpu time   61.9306: real time   32.4212

 eigenvalue-minimisations  : 18446
 total energy-change (2. order) :-0.5712829E+01  (-0.1777706E+00)
 number of electron     732.9999787 magnetization      56.1941012
 augmentation part      276.3933973 magnetization      42.4794944

 DIPCOR: dipole corrections for dipol
 direction  3 min pos     1,
 dipolmoment           0.000000      0.000000      0.183613 electrons x Angstroem
 Tr[quadrupol]    -14935.751170

 energy correction for charged system         0.000000 eV
 dipol+quadrupol energy correction           -0.000843 eV
 added-field ion interaction         -4.596931 eV  (added to PSCEN)


 Broyden mixing:
  rms(total) = 0.16301E+01    rms(broyden)= 0.16300E+01
  rms(prec ) = 0.17500E+01
  weight for this iteration     100.00

 eigenvalues of (default mixing * dielectric matrix)
  average eigenvalue GAMMA=   0.6244
  1.8766  1.0388  1.0388  0.4797  0.3280  0.3280  0.1032  0.2551  0.1711

 Free energy of the ion-electron system (eV)
  ---------------------------------------------------
  alpha Z        PSCENC =       917.27769274
  Ewald energy   TEWEN  =    428117.98884289
  -Hartree energ DENC   =   -486340.60542660
  -exchange      EXHF   =         0.00000000
  -V(xc)+E(xc)   XCENC  =     -1448.56914737
  PAW double counting   =     69615.27543642   -65814.99558110
  entropy T*S    EENTRO =        -0.05581092
  eigenvalues    EBANDS =     -3083.24172001
  atomic energy  EATOM  =     57661.98971508
  Solvation  Ediel_sol  =         0.00000000
  ---------------------------------------------------
  free energy    TOTEN  =      -374.93599886 eV

  energy without entropy =     -374.88018794  energy(sigma->0) =     -374.91739522


--------------------------------------------------------------------------------------------------------




--------------------------------------- Iteration      1(  15)  ---------------------------------------


    POTLOK:  cpu time    0.3942: real time    0.2303
    SETDIJ:  cpu time    0.0285: real time    0.0173
    EDDIAG:  cpu time   15.7291: real time    7.8663
  RMM-DIIS:  cpu time   36.3225: real time   18.4103
    ORTHCH:  cpu time    4.1169: real time    2.0659
       DOS:  cpu time    0.4142: real time    0.2148
    CHARGE:  cpu time    2.6948: real time    2.3551
    MIXING:  cpu time    0.0162: real time    0.0087
    --------------------------------------------
      LOOP:  cpu time   59.7162: real time   31.1688

 eigenvalue-minimisations  : 18451
 total energy-change (2. order) :-0.3030377E+01  (-0.1123509E+00)
 number of electron     732.9999790 magnetization      52.5376446
 augmentation part      276.1818290 magnetization      38.6308059

 DIPCOR: dipole corrections for dipol
 direction  3 min pos     1,
[...]
   -.920E+01 -.183E+02 -.413E+03   0.921E+01 0.182E+02 0.414E+03   -.387E-02 0.139E+00 -.396E+00   -.287E-02 0.104E-01 0.343E-01
   -.127E+02 0.349E+01 -.363E+03   0.125E+02 -.365E+01 0.363E+03   0.162E+00 0.158E+00 0.682E+00   -.441E-02 -.143E-02 0.284E-01
   -.181E+02 0.898E+01 -.412E+03   0.179E+02 -.898E+01 0.412E+03   0.132E+00 0.393E-02 -.389E+00   -.112E-01 -.922E-02 0.338E-01
   -.895E+01 0.542E+01 -.369E+03   0.902E+01 -.534E+01 0.370E+03   -.599E-01 -.981E-01 -.625E-01   -.985E-02 0.203E-04 0.387E-01
   0.527E+02 -.827E+02 -.198E+04   -.523E+02 0.836E+02 0.198E+04   -.289E+00 -.881E+00 0.809E+00   -.283E-02 0.753E-02 0.186E-01
   0.468E+02 0.413E+02 -.212E+04   -.457E+02 -.407E+02 0.212E+04   -.107E+01 -.574E+00 0.226E+01   -.235E-02 0.844E-03 0.147E-01
   0.403E+02 -.471E+02 -.212E+04   -.397E+02 0.461E+02 0.212E+04   -.580E+00 0.106E+01 0.227E+01   -.399E-02 -.429E-02 0.167E-01
   -.341E+01 0.108E+03 -.203E+04   0.344E+01 -.108E+03 0.203E+04   -.572E-01 0.247E+00 0.469E+00   -.498E-02 -.286E-02 0.188E-01
   0.325E+01 -.109E+03 -.203E+04   -.329E+01 0.109E+03 0.203E+04   0.670E-01 -.239E+00 0.447E+00   0.311E-02 0.590E-02 0.187E-01
   -.411E+02 0.475E+02 -.212E+04   0.405E+02 -.465E+02 0.212E+04   0.579E+00 -.106E+01 0.226E+01   -.107E-02 -.711E-03 0.161E-01
   -.480E+02 -.404E+02 -.212E+04   0.469E+02 0.398E+02 0.212E+04   0.106E+01 0.591E+00 0.226E+01   -.375E-03 -.423E-02 0.189E-01
   -.543E+02 0.813E+02 -.198E+04   0.540E+02 -.822E+02 0.198E+04   0.292E+00 0.887E+00 0.791E+00   0.380E-02 -.252E-02 0.224E-01
   0.384E+02 -.636E+02 -.200E+04   -.387E+02 0.639E+02 0.200E+04   0.353E+00 -.333E+00 0.116E+01   0.517E-03 0.349E-02 0.174E-01
   0.828E+02 0.534E+02 -.199E+04   -.837E+02 -.531E+02 0.199E+04   0.877E+00 -.287E+00 0.803E+00   -.608E-03 -.171E-02 0.152E-01
   0.109E+03 0.359E+01 -.203E+04   -.109E+03 -.362E+01 0.203E+04   0.232E+00 0.612E-01 0.456E+00   0.242E-02 0.206E-03 0.136E-01
   0.635E+02 0.382E+02 -.200E+04   -.638E+02 -.385E+02 0.200E+04   0.339E+00 0.338E+00 0.116E+01   0.207E-02 -.219E-02 0.178E-01
   -.626E+02 -.381E+02 -.200E+04   0.629E+02 0.384E+02 0.200E+04   -.338E+00 -.342E+00 0.117E+01   0.331E-03 0.496E-02 0.161E-01
   -.107E+03 -.301E+01 -.203E+04   0.107E+03 0.304E+01 0.203E+04   -.248E+00 -.585E-01 0.465E+00   0.235E-02 -.114E-03 0.120E-01
   -.808E+02 -.535E+02 -.198E+04   0.817E+02 0.532E+02 0.198E+04   -.894E+00 0.289E+00 0.809E+00   0.242E-02 0.384E-04 0.111E-01
   -.375E+02 0.631E+02 -.199E+04   0.378E+02 -.634E+02 0.199E+04   -.347E+00 0.328E+00 0.116E+01   -.117E-03 -.514E-02 0.129E-01
 -----------------------------------------------------------------------------------------------
   0.293E+00 -.167E+00 0.294E+03   0.391E-12 0.711E-14 -.477E-11   -.296E+00 0.167E+00 -.295E+03   0.283E-02 0.169E-02 0.129E+01
 
 
 POSITION                                       TOTAL-FORCE (eV/Angst)
 -----------------------------------------------------------------------------------
      5.30860      4.17733     19.47326        -0.002388      0.001500      0.002435
      4.51183     10.04640     19.37685        -0.002008      0.000706      0.004255
      8.43668      4.06245     19.46936        -0.003359     -0.006316      0.003010
      9.22067      9.17252     19.37244         0.003139      0.000656      0.003303
      6.43105      7.25538     19.37400        -0.000830      0.000615      0.000901
      7.30086      0.98400     19.37553         0.003758     -0.004777     -0.000881
      1.31732      8.04022     19.46851        -0.016772      0.000503      0.008007
      1.42742      0.18233     19.47247        -0.000769      0.004669      0.001500
      1.37340      4.11630     18.60499         0.001998      0.000778      0.002926
      5.43883      4.06762     20.65490        -0.014497     -0.001423     -0.002482
      4.54215     10.03887     20.58338        -0.003635     -0.000986     -0.002474
      8.31981      4.17343     20.65226         0.008735      0.000393     -0.002467
      9.19330      9.17898     20.57897         0.000079      0.001359      0.005211
      6.44167      7.28281     20.58057        -0.001899     -0.000586      0.001012
      7.29416      0.95531     20.58206         0.000518      0.002901     -0.003712
      1.42695      8.16076     20.65113         0.002431     -0.011983      0.005706
      1.31387      0.05559     20.65411         0.002341      0.013801      0.001051
      1.37275      1.37275     12.08797         0.006005     -0.006692     -0.009157
      1.37275      4.11824     12.08797         0.001194     -0.002495     -0.033729
      1.37275      6.86373     12.08797        -0.004618      0.003157     -0.009797
      1.37275      9.60922     12.08797         0.000019     -0.000821     -0.084118
      4.11824      1.37275     12.08797         0.077379     -0.012459      0.008338
      4.11824      4.11824     12.08797         0.005239      0.003648     -0.010037
      4.11824      6.86373     12.08797         0.009920      0.076847      0.008156
      4.11824      9.60922     12.08797         0.010004      0.006759      0.026578
      6.86373      1.37275     12.08797         0.006941     -0.011721      0.025898
      6.86373      4.11824     12.08797        -0.000208     -0.001525     -0.084976
      6.86373      6.86373     12.08797        -0.008332      0.011231      0.024431
      6.86373      9.60922     12.08797        -0.001562      0.001324      0.095031
      9.60922      1.37275     12.08797        -0.009738     -0.077792      0.008799
      9.60922      4.11824     12.08797        -0.002761     -0.007618     -0.009360
      9.60922      6.86373     12.08797        -0.074881      0.010002      0.008017
      9.60922      9.60922     12.08797        -0.010242     -0.007144      0.025880
      0.00285     10.96915     14.04736        -0.000338      0.000009     -0.000950
     10.97538      2.71958     14.03357        -0.000921      0.001170     -0.000236
     10.95776      5.49710     14.03322        -0.000428      0.000760      0.000541
     10.96374      8.23799     14.03703        -0.004222      0.002787     -0.001192
      2.76428     10.97908     14.03750         0.000653     -0.000333      0.000477
      2.77124      2.73719     14.03336        -0.001159      0.001560      0.000840
      2.75328      5.51522     14.03336        -0.000998      0.001152      0.001646
      2.74252      8.24815     14.04764         0.004276     -0.000095     -0.000650
      5.50017      0.00917     14.06470         0.000327      0.001186     -0.002479
      5.50338      2.74774     14.04740        -0.000889     -0.000201     -0.001197
      5.49308      5.50941     14.03662         0.000296     -0.000794     -0.000323
      5.48133      8.24618     14.06414         0.000126     -0.000845     -0.002477
      8.24549     10.97254     14.06424        -0.001128     -0.000892     -0.001706
      8.23432      2.72642     14.03703         0.000287      0.000786     -0.002403
      8.22447      5.48806     14.04630         0.000180      0.000643      0.000591
      8.22663      8.22753     14.06339         0.002700      0.001049      0.002603
      1.42426      1.33657     15.97137        -0.000783     -0.001970      0.002737
      1.37453      4.11635     15.88147        -0.002425      0.003312      0.000492
      1.32302      6.89706     15.97056         0.001283     -0.000282      0.000678
      1.37214      9.60785     15.99712         0.005096      0.002779     -0.000392
      4.15649      1.39175     16.05915         0.001071     -0.002213      0.001406
      4.15354      4.16774     15.97144         0.001606      0.001007      0.001080
      4.10061      6.90045     16.05766        -0.005354      0.003592      0.001750
      4.11124      9.64297     16.04951        -0.003485      0.001878     -0.001392
      6.89845      1.38007     16.04909        -0.002760     -0.002448     -0.000269
      6.86365      4.11859     15.99561         0.001157     -0.001275      0.004210
      6.82955      6.85695     16.04677         0.005124      0.001611      0.006474
      6.86262      9.60958     16.03188         0.003043      0.000270      0.001473
      9.62850      1.33385     16.05697         0.002555      0.002025      0.000033
      9.57441      4.06714     15.96971         0.003864     -0.002358      0.003176
      9.57192      6.84405     16.05520        -0.003559      0.001431      0.003233
      9.61521      9.57476     16.04857         0.000705     -0.004888     -0.005309
      0.11430      0.07988     18.03698         0.003123      0.003056     -0.001961
      0.00458      2.79085     17.96560        -0.001479      0.000050      0.004082
      0.04798      5.48642     17.96577         0.003524     -0.001390      0.002417
     10.80163      8.28976     18.16855        -0.001438      0.002708     -0.001744
      2.92650     10.92355     18.17412         0.005888     -0.000641     -0.007485
      2.70000      2.74603     17.97088        -0.000037      0.000557     -0.005045
      2.74405      5.44151     17.96906        -0.000972      0.000869     -0.004829
      2.63135      8.15217     18.03658         0.013227      0.002133     -0.011205
      5.68744      0.18101     18.13995         0.005192      0.001285      0.000855
      5.41116      2.86270     18.03900        -0.002879     -0.003986     -0.003481
      5.54877      5.67383     18.17143         0.000557      0.001567     -0.002067
      5.31250      8.43480     18.14018        -0.002215     -0.001801      0.001695
      8.41495     10.78539     18.13845        -0.002956      0.004579      0.005288
      8.18264      2.56494     18.17037        -0.002214     -0.003485      0.000101
      8.31931      5.37604     18.03542         0.001277      0.005265     -0.003440
      8.04072      8.05802     18.13684        -0.005695     -0.007690     -0.002898
 -----------------------------------------------------------------------------------
    total drift:                               -0.000424      0.001938      0.011886


--------------------------------------------------------------------------------------------------------



  FREE ENERGIE OF THE ION-ELECTRON SYSTEM (eV)
  ---------------------------------------------------
  free  energy   TOTEN  =      -460.10508978 eV

  energy  without entropy=     -459.95370171  energy(sigma->0) =     -460.05462709
 
 d Force = 0.1757564E-04[ 0.163E-04, 0.189E-04]  d Energy = 0.2001752E-04-0.244E-05
 d Force = 0.4834274E-01[ 0.483E-01, 0.483E-01]  d Ewald  = 0.4834274E-01 0.163E-08


--------------------------------------------------------------------------------------------------------


    POTLOK:  cpu time    0.8699: real time    1.0580


--------------------------------------------------------------------------------------------------------


 Conjugate gradient step on ions:
 trial-energy change:   -0.000020  1 .order   -0.000018   -0.000019   -0.000016
  (g-gl).g = 0.931E-04      g.g   = 0.158E-03  gl.gl    = 0.769E-03
 g(Force)  = 0.158E-03   g(Stress)= 0.000E+00 ortho     = 0.601E-05
 gamma     =   0.12112
 trial     =   0.11867
 opt step  =   0.47469  (harmonic =   0.85964) maximal distance =0.00048490
 next E    =  -460.105138   (d E  =  -0.00007)


--------------------------------------------------------------------------------------------------------


  
 reached required accuracy - stopping structural energy minimisation
     LOOP+:  cpu time  557.7611: real time  341.1123
    4ORBIT:  cpu time    0.0000: real time    0.0000
 


 total charge     
 
# of ion       s       p       d       tot
------------------------------------------
    1        1.309   2.371   0.000   3.680
    2        1.298   2.352   0.000   3.650
    3        1.309   2.371   0.000   3.680
    4        1.298   2.352   0.000   3.650
    5        1.298   2.352   0.000   3.650
    6        1.298   2.352   0.000   3.650
    7        1.309   2.371   0.000   3.680
    8        1.309   2.371   0.000   3.680
    9        1.304   2.192   0.000   3.496
   10        1.640   3.439   0.000   5.079
   11        1.636   3.438   0.000   5.073
   12        1.640   3.439   0.000   5.079
   13        1.636   3.438   0.000   5.073
   14        1.636   3.438   0.000   5.073
   15        1.636   3.438   0.000   5.073
   16        1.640   3.439   0.000   5.079
   17        1.640   3.439   0.000   5.079
   18        0.443   0.307   8.522   9.272
   19        0.440   0.303   8.523   9.266
   20        0.443   0.307   8.522   9.272
   21        0.440   0.307   8.527   9.274
   22        0.445   0.309   8.517   9.271
   23        0.443   0.307   8.521   9.271
   24        0.445   0.309   8.517   9.271
   25        0.447   0.305   8.518   9.269
   26        0.447   0.305   8.518   9.269
   27        0.440   0.307   8.526   9.273
   28        0.447   0.305   8.518   9.269
   29        0.439   0.302   8.519   9.261
   30        0.445   0.308   8.517   9.271
   31        0.443   0.307   8.521   9.271
   32        0.445   0.309   8.517   9.271
   33        0.447   0.305   8.518   9.270
   34        0.481   0.470   8.471   9.422
   35        0.483   0.474   8.466   9.423
   36        0.483   0.474   8.466   9.423
   37        0.484   0.472   8.474   9.429
   38        0.484   0.472   8.473   9.429
   39        0.483   0.474   8.466   9.423
   40        0.483   0.474   8.466   9.423
   41        0.481   0.470   8.471   9.422
   42        0.477   0.463   8.469   9.409
   43        0.481   0.471   8.470   9.422
   44        0.484   0.472   8.473   9.429
   45        0.477   0.463   8.469   9.409
   46        0.477   0.463   8.469   9.409
   47        0.484   0.472   8.473   9.429
   48        0.481   0.471   8.470   9.422
   49        0.477   0.463   8.469   9.409
   50        0.477   0.453   8.485   9.415
   51        0.465   0.457   8.503   9.424
   52        0.477   0.453   8.485   9.415
   53        0.471   0.439   8.500   9.411
   54        0.481   0.451   8.479   9.411
   55        0.477   0.453   8.485   9.415
   56        0.482   0.451   8.479   9.412
   57        0.486   0.449   8.482   9.418
   58        0.486   0.449   8.482   9.418
   59        0.471   0.440   8.500   9.411
   60        0.487   0.450   8.482   9.418
   61        0.463   0.433   8.491   9.387
   62        0.482   0.451   8.479   9.412
   63        0.477   0.453   8.485   9.415
   64        0.482   0.451   8.479   9.412
   65        0.486   0.449   8.483   9.418
   66        0.485   0.485   8.527   9.497
   67        0.462   0.447   8.537   9.447
   68        0.462   0.447   8.537   9.446
   69        0.446   0.509   8.494   9.449
   70        0.445   0.509   8.494   9.448
   71        0.462   0.446   8.537   9.445
   72        0.462   0.446   8.537   9.445
   73        0.485   0.486   8.527   9.498
   74        0.453   0.504   8.517   9.474
   75        0.484   0.485   8.527   9.496
   76        0.446   0.509   8.494   9.449
   77        0.453   0.504   8.517   9.473
   78        0.453   0.503   8.517   9.473
   79        0.446   0.509   8.494   9.448
   80        0.485   0.485   8.527   9.497
   81        0.453   0.504   8.517   9.474
--------------------------------------------------
tot         54.662  75.971 543.921 674.555
 


 magnetization (x)
 
# of ion       s       p       d       tot
------------------------------------------
    1        0.000  -0.000   0.000  -0.000
    2       -0.000  -0.001   0.000  -0.001
    3        0.000  -0.000   0.000  -0.000
    4       -0.000  -0.001   0.000  -0.001
    5       -0.000  -0.001   0.000  -0.001
    6       -0.000  -0.001   0.000  -0.001
    7        0.000  -0.000   0.000  -0.000
    8        0.000  -0.000   0.000  -0.000
    9       -0.000  -0.004   0.000  -0.004
   10       -0.000  -0.000   0.000  -0.000
   11       -0.000  -0.001   0.000  -0.001
   12       -0.000  -0.000   0.000  -0.000
   13       -0.000  -0.001   0.000  -0.001
   14       -0.000  -0.001   0.000  -0.001
   15       -0.000  -0.001   0.000  -0.001
   16       -0.000  -0.000   0.000  -0.000
   17       -0.000  -0.000   0.000  -0.000
   18       -0.000  -0.001   0.065   0.064
   19        0.000  -0.001   0.070   0.069
   20       -0.000  -0.001   0.065   0.064
   21        0.000  -0.001   0.062   0.061
   22       -0.000  -0.001   0.063   0.062
   23       -0.000  -0.001   0.065   0.064
   24       -0.000  -0.001   0.063   0.062
   25       -0.000  -0.001   0.056   0.055
   26       -0.000  -0.001   0.056   0.055
   27        0.000  -0.001   0.062   0.061
   28       -0.000  -0.001   0.056   0.055
   29       -0.000  -0.001   0.046   0.045
   30       -0.000  -0.001   0.063   0.062
   31       -0.000  -0.001   0.065   0.064
   32       -0.000  -0.001   0.063   0.062
   33       -0.000  -0.001   0.056   0.055
   34       -0.000  -0.001   0.065   0.063
   35       -0.000  -0.001   0.072   0.070
   36       -0.000  -0.001   0.072   0.070
   37       -0.000  -0.001   0.062   0.060
   38       -0.000  -0.001   0.062   0.060
   39       -0.000  -0.001   0.071   0.070
   40       -0.000  -0.001   0.071   0.070
   41       -0.000  -0.001   0.065   0.063
   42       -0.000  -0.001   0.048   0.047
   43       -0.000  -0.001   0.065   0.063
   44       -0.000  -0.001   0.062   0.060
   45       -0.000  -0.001   0.048   0.047
   46       -0.000  -0.001   0.048   0.047
   47       -0.000  -0.001   0.062   0.060
   48       -0.000  -0.001   0.065   0.063
   49       -0.000  -0.001   0.049   0.047
   50       -0.000  -0.001   0.050   0.049
   51       -0.000  -0.001   0.051   0.050
   52       -0.000  -0.001   0.050   0.049
   53       -0.000  -0.001   0.053   0.052
   54       -0.000  -0.001   0.028   0.027
   55       -0.000  -0.001   0.050   0.049
   56       -0.000  -0.001   0.028   0.027
   57       -0.000  -0.001   0.026   0.025
   58       -0.000  -0.001   0.026   0.025
   59       -0.000  -0.001   0.053   0.052
   60       -0.000  -0.001   0.026   0.025
   61       -0.000  -0.001   0.038   0.037
   62       -0.000  -0.001   0.029   0.027
   63       -0.000  -0.001   0.050   0.049
   64       -0.000  -0.001   0.029   0.027
   65       -0.000  -0.001   0.026   0.025
   66       -0.000  -0.000   0.005   0.004
   67       -0.000  -0.001   0.005   0.004
   68       -0.000  -0.001   0.005   0.004
   69       -0.000  -0.001   0.003   0.002
   70       -0.000  -0.001   0.003   0.002
   71       -0.000  -0.001   0.005   0.004
   72       -0.000  -0.001   0.005   0.004
   73       -0.000  -0.000   0.005   0.004
   74       -0.000  -0.001   0.002   0.001
   75       -0.000  -0.000   0.005   0.004
   76       -0.000  -0.001   0.003   0.002
   77       -0.000  -0.001   0.002   0.001
   78       -0.000  -0.001   0.002   0.001
   79       -0.000  -0.001   0.003   0.002
   80       -0.000  -0.000   0.005   0.005
   81       -0.000  -0.001   0.002   0.001
--------------------------------------------------
tot         -0.017  -0.070   2.635   2.549
 

 total amount of memory used by VASP MPI-rank0   233745. kBytes
=======================================================================

   base      :      30000. kBytes
   nonlr-proj:      57191. kBytes
   fftplans  :       5987. kBytes
   grid      :      86439. kBytes
   one-center:       2519. kBytes
   wavefun   :      51609. kBytes
 
  
  
 General timing and accounting informations for this job:
 ========================================================
  
                  Total CPU time used (sec):     9319.743
                            User time (sec):     8765.665
                          System time (sec):      554.077
                         Elapsed time (sec):     5504.215
  
                   Maximum memory used (kb):      666420.
                   Average memory used (kb):           0.
  
                          Minor page faults:      9698735
                          Major page faults:          910
                 Voluntary context switches:        93256
