 vasp.5.4.4.18Apr17-6-g9f103f2a35 (build May 01 2020 14:57:12) complex          
  
 executed on             LinuxIFC date 2021.10.16  16:59:46
 running on  192 total cores
 distrk:  each k-point on  192 cores,    1 groups
 distr:  one band on NCORES_PER_BAND=   1 cores,  192 groups


--------------------------------------------------------------------------------------------------------


 INCAR:
 POTCAR:    PAW_PBE Cu 22Jun2005                  
 POTCAR:    PAW_PBE N 08Apr2002                   
 POTCAR:    PAW_PBE O 08Apr2002                   
 POTCAR:    PAW_PBE H 15Jun2001                   

 ----------------------------------------------------------------------------- 
|                                                                             |
|           W    W    AA    RRRRR   N    N  II  N    N   GGGG   !!!           |
|           W    W   A  A   R    R  NN   N  II  NN   N  G    G  !!!           |
|           W    W  A    A  R    R  N N  N  II  N N  N  G       !!!           |
|           W WW W  AAAAAA  RRRRR   N  N N  II  N  N N  G  GGG   !            |
|           WW  WW  A    A  R   R   N   NN  II  N   NN  G    G                |
|           W    W  A    A  R    R  N    N  II  N    N   GGGG   !!!           |
|                                                                             |
|      For optimal performance we recommend to set                            |
|        NCORE= 4 - approx SQRT( number of cores)                             |
|      NCORE specifies how many cores store one orbital (NPAR=cpu/NCORE).     |
|      This setting can  greatly improve the performance of VASP for DFT.     |
|      The default,   NCORE=1            might be grossly inefficient         |
|      on modern multi-core architectures or massively parallel machines.     |
|      Do your own testing !!!!                                               |
|      Unfortunately you need to use the default for GW and RPA calculations. |
|      (for HF NCORE is supported but not extensively tested yet)             |
|                                                                             |
 ----------------------------------------------------------------------------- 

 POTCAR:    PAW_PBE Cu 22Jun2005                  
   VRHFIN =Cu: d10 p1                                                           
   LEXCH  = PE                                                                  
   EATOM  =  1390.9808 eV,  102.2342 Ry                                         
                                                                                
   TITEL  = PAW_PBE Cu 22Jun2005                                                
   LULTRA =        F    use ultrasoft PP ?                                      
   IUNSCR =        1    unscreen: 0-lin 1-nonlin 2-no                           
   RPACOR =    2.000    partial core radius                                     
   POMASS =   63.546; ZVAL   =   11.000    mass and valenz                      
   RCORE  =    2.300    outmost cutoff radius                                   
   RWIGS  =    2.200; RWIGS  =    1.164    wigner-seitz radius (au A)           
   ENMAX  =  295.446; ENMIN  =  221.585 eV                                      
   ICORE  =        3    local potential                                         
   LCOR   =        T    correct aug charges                                     
   LPAW   =        T    paw PP                                                  
   EAUG   =  586.980                                                            
   DEXC   =    0.000                                                            
   RMAX   =    2.344    core radius for proj-oper                               
   RAUG   =    1.300    factor for augmentation sphere                          
   RDEP   =    2.302    radius for radial grids                                 
   RDEPT  =    1.771    core radius for aug-charge                              
                                                                                
   Atomic configuration                                                         
    9 entries                                                                   
     n  l   j            E        occ.                                          
     1  0  0.50     -8850.2468   2.0000                                         
     2  0  0.50     -1062.3498   2.0000                                         
     2  1  1.50      -916.8226   6.0000                                         
     3  0  0.50      -114.6929   2.0000                                         
     3  1  1.50       -72.1325   6.0000                                         
     3  2  2.50        -5.0394  10.0000                                         
     4  0  0.50        -4.6097   1.0000                                         
     4  1  0.50        -4.0817   0.0000                                         
     4  3  2.50        -1.3606   0.0000                                         
   Description                                                                  
     l       E           TYP  RCUT    TYP  RCUT                                 
     2     -5.0393973     23  2.200                                             
     2     10.8846608     23  2.200                                             
     0     -4.6097109     23  2.200                                             
     0      8.2520465     23  2.200                                             
     1     -2.7211652     23  2.200                                             
     1     21.7055443     23  2.200                                             
     3      2.7211652     23  2.300                                             
  local pseudopotential read in
  partial core-charges read in
  partial kinetic energy density read in
  atomic valenz-charges read in
  non local Contribution for L=           2  read in
    real space projection operators read in
  non local Contribution for L=           2  read in
    real space projection operators read in
  non local Contribution for L=           0  read in
    real space projection operators read in
  non local Contribution for L=           0  read in
    real space projection operators read in
  non local Contribution for L=           1  read in
    real space projection operators read in
  non local Contribution for L=           1  read in
    real space projection operators read in
    PAW grid and wavefunctions read in
 
   number of l-projection  operators is LMAX  =           6
   number of lm-projection operators is LMMAX =          18
 
 POTCAR:    PAW_PBE N 08Apr2002                   
   VRHFIN =N: s2p3                                                              
   LEXCH  = PE                                                                  
   EATOM  =   264.5486 eV,   19.4438 Ry                                         
                                                                                
   TITEL  = PAW_PBE N 08Apr2002                                                 
   LULTRA =        F    use ultrasoft PP ?                                      
   IUNSCR =        1    unscreen: 0-lin 1-nonlin 2-no                           
   RPACOR =    1.200    partial core radius                                     
   POMASS =   14.001; ZVAL   =    5.000    mass and valenz                      
   RCORE  =    1.500    outmost cutoff radius                                   
   RWIGS  =    1.400; RWIGS  =    0.741    wigner-seitz radius (au A)           
   ENMAX  =  400.000; ENMIN  =  300.000 eV                                      
   ICORE  =        2    local potential                                         
   LCOR   =        T    correct aug charges                                     
   LPAW   =        T    paw PP                                                  
   EAUG   =  627.112                                                            
   DEXC   =    0.000                                                            
   RMAX   =    1.529    core radius for proj-oper                               
   RAUG   =    1.300    factor for augmentation sphere                          
   RDEP   =    1.514    radius for radial grids                                 
   RDEPT  =    1.338    core radius for aug-charge                              
                                                                                
   Atomic configuration                                                         
    4 entries                                                                   
     n  l   j            E        occ.                                          
     1  0  0.50      -384.7179   2.0000                                         
     2  0  0.50       -18.5828   2.0000                                         
     2  1  0.50        -7.0898   3.0000                                         
     3  2  1.50        -6.8029   0.0000                                         
   Description                                                                  
     l       E           TYP  RCUT    TYP  RCUT                                 
     0    -18.5828119     23  1.200                                             
     0    -13.5018863     23  1.200                                             
     1     -7.0897853     23  1.500                                             
     1      9.5240782     23  1.500                                             
     2     -6.8029130      7  1.500                                             
  local pseudopotential read in
  partial core-charges read in
  partial kinetic energy density read in
  atomic valenz-charges read in
  non local Contribution for L=           0  read in
    real space projection operators read in
  non local Contribution for L=           0  read in
    real space projection operators read in
  non local Contribution for L=           1  read in
    real space projection operators read in
  non local Contribution for L=           1  read in
    real space projection operators read in
    PAW grid and wavefunctions read in
 
   number of l-projection  operators is LMAX  =           4
   number of lm-projection operators is LMMAX =           8
 
 POTCAR:    PAW_PBE O 08Apr2002                   
   VRHFIN =O: s2p4                                                              
   LEXCH  = PE                                                                  
   EATOM  =   432.3788 eV,   31.7789 Ry                                         
                                                                                
   TITEL  = PAW_PBE O 08Apr2002                                                 
   LULTRA =        F    use ultrasoft PP ?                                      
   IUNSCR =        1    unscreen: 0-lin 1-nonlin 2-no                           
   RPACOR =    1.200    partial core radius                                     
   POMASS =   16.000; ZVAL   =    6.000    mass and valenz                      
   RCORE  =    1.520    outmost cutoff radius                                   
   RWIGS  =    1.550; RWIGS  =    0.820    wigner-seitz radius (au A)           
   ENMAX  =  400.000; ENMIN  =  300.000 eV                                      
   ICORE  =        2    local potential                                         
   LCOR   =        T    correct aug charges                                     
   LPAW   =        T    paw PP                                                  
   EAUG   =  605.392                                                            
   DEXC   =    0.000                                                            
   RMAX   =    1.553    core radius for proj-oper                               
   RAUG   =    1.300    factor for augmentation sphere                          
   RDEP   =    1.550    radius for radial grids                                 
   RDEPT  =    1.329    core radius for aug-charge                              
                                                                                
   Atomic configuration                                                         
    4 entries                                                                   
     n  l   j            E        occ.                                          
     1  0  0.50      -514.6923   2.0000                                         
     2  0  0.50       -23.9615   2.0000                                         
     2  1  0.50        -9.0305   4.0000                                         
     3  2  1.50        -9.5241   0.0000                                         
   Description                                                                  
     l       E           TYP  RCUT    TYP  RCUT                                 
     0    -23.9615318     23  1.200                                             
     0     -9.5240782     23  1.200                                             
     1     -9.0304911     23  1.520                                             
     1      8.1634956     23  1.520                                             
     2     -9.5240782      7  1.500                                             
  local pseudopotential read in
  partial core-charges read in
  partial kinetic energy density read in
  kinetic energy density of atom read in
  atomic valenz-charges read in
  non local Contribution for L=           0  read in
    real space projection operators read in
  non local Contribution for L=           0  read in
    real space projection operators read in
  non local Contribution for L=           1  read in
    real space projection operators read in
  non local Contribution for L=           1  read in
    real space projection operators read in
    PAW grid and wavefunctions read in
 
   number of l-projection  operators is LMAX  =           4
   number of lm-projection operators is LMMAX =           8
 
 POTCAR:    PAW_PBE H 15Jun2001                   
   VRHFIN =H: ultrasoft test                                                    
   LEXCH  = PE                                                                  
   EATOM  =    12.4884 eV,    0.9179 Ry                                         
                                                                                
   TITEL  = PAW_PBE H 15Jun2001                                                 
   LULTRA =        F    use ultrasoft PP ?                                      
   IUNSCR =        0    unscreen: 0-lin 1-nonlin 2-no                           
   RPACOR =    0.000    partial core radius                                     
   POMASS =    1.000; ZVAL   =    1.000    mass and valenz                      
   RCORE  =    1.100    outmost cutoff radius                                   
   RWIGS  =    0.700; RWIGS  =    0.370    wigner-seitz radius (au A)           
   ENMAX  =  250.000; ENMIN  =  200.000 eV                                      
   RCLOC  =    0.701    cutoff for local pot                                    
   LCOR   =        T    correct aug charges                                     
   LPAW   =        T    paw PP                                                  
   EAUG   =  400.000                                                            
   RMAX   =    1.123    core radius for proj-oper                               
   RAUG   =    1.200    factor for augmentation sphere                          
   RDEP   =    1.112    radius for radial grids                                 
   RDEPT  =    0.926    core radius for aug-charge                              
                                                                                
   Atomic configuration                                                         
    2 entries                                                                   
     n  l   j            E        occ.                                          
     1  0  0.50        -6.4927   1.0000                                         
     2  1  0.50        -3.4015   0.0000                                         
   Description                                                                  
     l       E           TYP  RCUT    TYP  RCUT                                 
     0     -6.4927494     23  1.100                                             
     0      6.8029130     23  1.100                                             
     1     -4.0817478     23  1.100                                             
  local pseudopotential read in
  atomic valenz-charges read in
  non local Contribution for L=           0  read in
    real space projection operators read in
  non local Contribution for L=           0  read in
    real space projection operators read in
  non local Contribution for L=           1  read in
    real space projection operators read in
    PAW grid and wavefunctions read in
 
   number of l-projection  operators is LMAX  =           3
   number of lm-projection operators is LMMAX =           5
 
 Optimization of the real space projectors (new method)

 maximal supplied QI-value         = 16.25
 optimisation between [QCUT,QGAM] = [ 10.24, 20.48] = [ 29.35,117.42] Ry 
 Optimized for a Real-space Cutoff    1.55 Angstroem

   l    n(q)    QCUT    max X(q) W(low)/X(q) W(high)/X(q)  e(spline) 
   2      9    10.239     4.610    0.85E-04    0.29E-03    0.14E-06
   2      9    10.239     8.522    0.15E-03    0.50E-03    0.27E-06
   0     10    10.239    51.609    0.45E-04    0.99E-04    0.10E-06
   0     10    10.239    27.747    0.40E-04    0.93E-04    0.97E-07
   1      9    10.239    20.408    0.15E-03    0.78E-05    0.15E-06
   1      9    10.239    13.425    0.13E-03    0.71E-05    0.14E-06
 Optimization of the real space projectors (new method)

 maximal supplied QI-value         = 25.13
 optimisation between [QCUT,QGAM] = [ 10.05, 20.36] = [ 28.30,116.06] Ry 
 Optimized for a Real-space Cutoff    1.70 Angstroem

   l    n(q)    QCUT    max X(q) W(low)/X(q) W(high)/X(q)  e(spline) 
   0     10    10.053    79.467    0.61E-04    0.98E-04    0.61E-06
   0     10    10.053    66.151    0.60E-04    0.98E-04    0.61E-06
   1     10    10.053     8.350    0.17E-03    0.71E-03    0.45E-05
   1     10    10.053     5.531    0.18E-03    0.77E-03    0.49E-05
 Optimization of the real space projectors (new method)

 maximal supplied QI-value         = 24.76
 optimisation between [QCUT,QGAM] = [ 10.15, 20.30] = [ 28.85,115.39] Ry 
 Optimized for a Real-space Cutoff    1.51 Angstroem

   l    n(q)    QCUT    max X(q) W(low)/X(q) W(high)/X(q)  e(spline) 
   0      9    10.150    20.381    0.17E-03    0.18E-03    0.41E-06
   0      9    10.150    15.268    0.18E-03    0.20E-03    0.43E-06
   1      9    10.150     5.964    0.16E-03    0.20E-03    0.36E-06
   1      9    10.150     5.382    0.13E-03    0.16E-03    0.33E-06
 Optimization of the real space projectors (new method)

 maximal supplied QI-value         = 34.20
 optimisation between [QCUT,QGAM] = [  9.92, 20.18] = [ 27.55,114.04] Ry 
 Optimized for a Real-space Cutoff    1.34 Angstroem

   l    n(q)    QCUT    max X(q) W(low)/X(q) W(high)/X(q)  e(spline) 
   0      8     9.919    19.460    0.16E-03    0.20E-03    0.36E-06
   0      8     9.919    12.209    0.16E-03    0.20E-03    0.35E-06
   1      8     9.919     4.655    0.19E-03    0.46E-03    0.40E-06
  PAW_PBE Cu 22Jun2005                  :
 energy of atom  1       EATOM=-1390.9808
 kinetic energy error for atom=    0.0232 (will be added to EATOM!!)
  PAW_PBE N 08Apr2002                   :
 energy of atom  2       EATOM= -264.5486
 kinetic energy error for atom=    0.0736 (will be added to EATOM!!)
  PAW_PBE O 08Apr2002                   :
 energy of atom  3       EATOM= -432.3788
 kinetic energy error for atom=    0.1156 (will be added to EATOM!!)
  PAW_PBE H 15Jun2001                   :
 energy of atom  4       EATOM=  -12.4884
 kinetic energy error for atom=    0.0098 (will be added to EATOM!!)
 
 
 POSCAR: Cu N O H                                
  positions in direct lattice
  velocities in cartesian coordinates
 exchange correlation table for  LEXCH =        8
   RHO(1)=    0.500       N(1)  =     2000
   RHO(2)=  100.500       N(2)  =     4000
 


--------------------------------------------------------------------------------------------------------


 ion  position               nearest neighbor table
   1  0.125  0.125  0.410-  22 2.52  21 2.52  17 2.52   5 2.52   2 2.52  13 2.52   4 2.52  18 2.52

   2  0.125  0.375  0.410-  23 2.52  22 2.52  19 2.52   1 2.52   3 2.52   6 2.52  14 2.52  18 2.52

   3  0.125  0.625  0.410-  23 2.52  24 2.52  20 2.52   2 2.52   4 2.52   7 2.52  15 2.52  19 2.53

   4  0.125  0.875  0.410-  21 2.52  24 2.52   3 2.52   8 2.52   1 2.52  16 2.52  17 2.52  20 2.52

   5  0.375  0.125  0.410-  26 2.52  25 2.52  21 2.52  22 2.52   6 2.52   9 2.52   1 2.52   8 2.52

   6  0.375  0.375  0.410-  27 2.52  26 2.52  23 2.52  22 2.52   2 2.52   5 2.52   7 2.52  10 2.52

   7  0.375  0.625  0.410-  24 2.52  27 2.52  28 2.52  23 2.52   3 2.52   6 2.52   8 2.52  11 2.52

   8  0.375  0.875  0.410-  21 2.52  24 2.52  25 2.52  28 2.52   7 2.52  12 2.52   4 2.52   5 2.52

   9  0.625  0.125  0.410-  29 2.51  30 2.52  25 2.52  26 2.52  10 2.52  13 2.52   5 2.52  12 2.52

  10  0.625  0.375  0.410-  31 2.52  30 2.52  27 2.52  14 2.52   6 2.52   9 2.52  11 2.52  26 2.52

  11  0.625  0.625  0.410-  32 2.51  31 2.52  28 2.52  27 2.52   7 2.52  10 2.52  12 2.52  15 2.52

  12  0.625  0.875  0.410-  29 2.52  32 2.52  25 2.52  28 2.52  11 2.52  16 2.52   8 2.52   9 2.52

  13  0.875  0.125  0.410-  17 2.51  18 2.51  29 2.52  30 2.52   9 2.52  14 2.52   1 2.52  16 2.52

  14  0.875  0.375  0.410-  19 2.51  18 2.51  31 2.52  30 2.52  13 2.52  15 2.52  10 2.52   2 2.52

  15  0.875  0.625  0.410-  20 2.51  19 2.52  32 2.52  31 2.52  14 2.52  16 2.52  11 2.52   3 2.52

  16  0.875  0.875  0.410-  17 2.52  20 2.52  12 2.52  15 2.52  13 2.52   4 2.52  29 2.52  32 2.52

  17  0.999  0.000  0.470-  13 2.51  16 2.52  18 2.52   1 2.52  29 2.52   4 2.52  33 2.53  20 2.53
                            21 2.53  48 2.53  36 2.55  45 2.58
  18  0.999  0.250  0.470-  13 2.51  14 2.51  30 2.52  19 2.52  17 2.52   1 2.52   2 2.52  22 2.53
                            34 2.53  33 2.54  45 2.56  46 2.56
  19  0.999  0.500  0.470-  14 2.51  15 2.52  31 2.52  18 2.52  20 2.52   2 2.52   3 2.53  23 2.53
                            34 2.53  35 2.54  47 2.56  46 2.57
  20  0.999  0.750  0.470-  15 2.51  16 2.52   3 2.52  19 2.52  32 2.52   4 2.52  35 2.53  17 2.53
                            24 2.53  48 2.53  36 2.55  47 2.58
  21  0.250  1.000  0.470-   8 2.52   5 2.52   4 2.52   1 2.52  25 2.52  22 2.52  24 2.52  17 2.53
                            33 2.54  40 2.54  36 2.55  37 2.57
  22  0.250  0.250  0.470-   1 2.52   2 2.52   5 2.52   6 2.52  26 2.52  23 2.52  21 2.52  18 2.53
                            34 2.54  33 2.54  38 2.55  37 2.56
  23  0.250  0.500  0.470-   2 2.52   3 2.52   6 2.52  27 2.52   7 2.52  22 2.52  24 2.52  19 2.53
                            35 2.54  34 2.54  38 2.55  39 2.56
  24  0.250  0.750  0.470-   7 2.52   3 2.52   8 2.52   4 2.52  28 2.52  23 2.52  21 2.52  20 2.53
                            40 2.54  35 2.54  36 2.55  39 2.57
  25  0.500  0.000  0.470-  29 2.52   9 2.52   5 2.52  26 2.52  12 2.52   8 2.52  21 2.52  28 2.53
                            44 2.54  40 2.54  37 2.56  41 2.56
  26  0.499  0.250  0.470-   5 2.52  25 2.52   6 2.52  22 2.52  30 2.52   9 2.52  10 2.52  27 2.52
                            42 2.53  37 2.54  38 2.54  41 2.55
  27  0.499  0.500  0.470-   6 2.52   7 2.52  28 2.52  23 2.52  31 2.52  10 2.52  11 2.52  26 2.52
                            42 2.54  39 2.54  43 2.55  38 2.55
  28  0.500  0.750  0.470-  32 2.52  11 2.52   7 2.52  27 2.52  12 2.52   8 2.52  24 2.52  25 2.53
                            44 2.54  40 2.54  39 2.56  43 2.57
  29  0.749  0.000  0.470-   9 2.51  25 2.52  30 2.52  12 2.52  13 2.52  17 2.52  16 2.52  32 2.53
                            44 2.54  48 2.54  45 2.55  41 2.57
  30  0.749  0.250  0.470-   9 2.52  10 2.52  29 2.52  18 2.52  13 2.52  31 2.52  26 2.52  14 2.52
                            46 2.54  45 2.54  42 2.54  41 2.55
  31  0.749  0.500  0.470-  10 2.52  11 2.52  32 2.52  19 2.52  14 2.52  30 2.52  15 2.52  27 2.52
                            47 2.54  46 2.54  42 2.55  43 2.55
  32  0.749  0.749  0.470-  11 2.51  28 2.52  31 2.52  15 2.52  12 2.52  20 2.52  16 2.52  29 2.53
                            44 2.54  48 2.54  47 2.55  43 2.57
  33  0.124  0.124  0.530-  54 2.50  36 2.51  50 2.52  49 2.52  17 2.53  53 2.53  34 2.53  21 2.54
                            37 2.54  18 2.54  45 2.54  22 2.54
  34  0.123  0.375  0.530-  54 2.50  55 2.51  50 2.51  51 2.51  18 2.53  19 2.53  33 2.53  35 2.53
                            38 2.54  46 2.54  22 2.54  23 2.54
  35  0.124  0.626  0.530-  55 2.50  36 2.51  51 2.51  52 2.52  20 2.53  56 2.53  34 2.53  24 2.54
                            19 2.54  39 2.54  47 2.54  23 2.54
  36  0.125  0.875  0.530-  33 2.51  35 2.51  49 2.51  52 2.51  56 2.52  48 2.52  53 2.52  40 2.52
                            24 2.55  21 2.55  20 2.55  17 2.55
  37  0.376  0.126  0.531-  58 2.49  41 2.50  38 2.51  53 2.52  57 2.52  54 2.52  40 2.54  33 2.54
                            26 2.54  22 2.56  25 2.56  21 2.57
  38  0.375  0.375  0.530-  37 2.51  39 2.51  42 2.51  54 2.54  55 2.54  34 2.54  26 2.54  27 2.55
                            22 2.55  23 2.55  59 2.57  58 2.58
  39  0.376  0.624  0.531-  59 2.49  43 2.50  38 2.51  60 2.52  56 2.52  55 2.52  40 2.54  35 2.54
                            27 2.54  23 2.56  28 2.56  24 2.57
  40  0.374  0.875  0.530-  57 2.51  60 2.52  36 2.52  56 2.52  53 2.52  44 2.52  21 2.54  24 2.54
                            39 2.54  37 2.54  28 2.54  25 2.54
  41  0.624  0.127  0.531-  42 2.50  37 2.50  45 2.51  57 2.52  61 2.53  62 2.54  26 2.55  44 2.55
                            30 2.55  58 2.56  25 2.56  29 2.57
  42  0.624  0.375  0.530-  41 2.50  43 2.50  46 2.50  38 2.51  26 2.53  27 2.54  30 2.54  31 2.55
                            63 2.63  62 2.63  59 2.65  58 2.66
  43  0.624  0.622  0.531-  42 2.50  39 2.50  47 2.51  60 2.52  64 2.52  63 2.54  27 2.55  44 2.55
                            31 2.55  59 2.56  28 2.57  32 2.57
  44  0.625  0.875  0.530-  61 2.51  64 2.51  57 2.52  60 2.52  40 2.52  48 2.53  28 2.54  25 2.54
                            32 2.54  29 2.54  43 2.55  41 2.55
  45  0.872  0.126  0.531-  62 2.50  61 2.50  41 2.51  50 2.51  46 2.51  49 2.52  48 2.54  30 2.54
                            33 2.54  29 2.55  18 2.56  17 2.58
  46  0.872  0.375  0.531-  42 2.50  45 2.51  47 2.51  50 2.53  51 2.53  34 2.54  30 2.54  31 2.54
                            18 2.56  19 2.57  63 2.57  62 2.57
  47  0.872  0.623  0.531-  63 2.50  64 2.50  51 2.51  43 2.51  46 2.51  52 2.52  48 2.54  31 2.54
                            35 2.54  32 2.55  19 2.56  20 2.58
  48  0.875  0.875  0.530-  61 2.52  64 2.52  36 2.52  52 2.52  49 2.52  44 2.53  20 2.53  17 2.53
                            45 2.54  47 2.54  32 2.54  29 2.54
  49  0.999  1.000  0.589-  36 2.51  50 2.52  61 2.52  33 2.52  52 2.52  45 2.52  48 2.52  53 2.53

  50  0.001  0.249  0.589-  54 2.46  62 2.51  45 2.51  34 2.51  33 2.52  49 2.52  46 2.53  51 2.53

  51  0.001  0.500  0.589-  55 2.46  63 2.50  47 2.51  34 2.51  35 2.51  52 2.52  46 2.53  50 2.53

  52  0.999  0.750  0.589-  36 2.51  64 2.52  51 2.52  35 2.52  49 2.52  48 2.52  47 2.52  56 2.53

  53  0.250  0.000  0.590-  37 2.52  54 2.52  57 2.52  36 2.52  40 2.52  56 2.52  33 2.53  49 2.53

  54  0.245  0.250  0.589-  50 2.46  58 2.49  34 2.50  33 2.50  53 2.52  37 2.52  55 2.53  38 2.54

  55  0.245  0.501  0.589-  51 2.46  59 2.50  35 2.50  34 2.51  39 2.52  56 2.52  54 2.53  38 2.54

  56  0.250  0.750  0.590-  36 2.52  39 2.52  55 2.52  60 2.52  40 2.52  53 2.52  52 2.53  35 2.53

  57  0.500  0.998  0.589-  58 2.48  60 2.49  40 2.51  44 2.52  41 2.52  37 2.52  53 2.52  61 2.52

  58  0.492  0.243  0.593-  65 1.96  57 2.48  37 2.49  54 2.49  41 2.56  38 2.58  62 2.64  59 2.65
                            42 2.66
  59  0.492  0.506  0.592-  65 1.96  60 2.48  39 2.49  55 2.50  43 2.56  38 2.57  63 2.63  58 2.65
                            42 2.65
  60  0.500  0.751  0.589-  59 2.48  57 2.49  39 2.52  44 2.52  43 2.52  40 2.52  56 2.52  64 2.52

  61  0.750  0.998  0.589-  64 2.48  62 2.49  45 2.50  44 2.51  48 2.52  49 2.52  57 2.52  41 2.53

  62  0.753  0.244  0.592-  66 2.00  61 2.49  45 2.50  50 2.51  41 2.54  46 2.57  42 2.63  58 2.64
                            63 2.64
  63  0.753  0.505  0.592-  66 2.00  64 2.49  47 2.50  51 2.50  43 2.54  46 2.57  59 2.63  42 2.63
                            62 2.64
  64  0.750  0.752  0.589-  61 2.48  63 2.49  47 2.50  44 2.51  48 2.52  52 2.52  43 2.52  60 2.52

  65  0.552  0.375  0.636-  67 1.03  66 1.45  58 1.96  59 1.96
  66  0.696  0.375  0.639-  65 1.45  62 2.00  63 2.00
  67  0.521  0.376  0.669-  65 1.03
 
  LATTYP: Found a simple tetragonal cell.
 ALAT       =    10.0912000000
 C/A-ratio  =     2.9728872681
  
  Lattice vectors:
  
 A1 = (  10.0912000000,   0.0000000000,   0.0000000000)
 A2 = (   0.0000000000,  10.0912000000,   0.0000000000)
 A3 = (   0.0000000000,   0.0000000000,  30.0000000000)


Analysis of symmetry for initial positions (statically):
=====================================================================
 Subroutine PRICEL returns:
 Original cell was already a primitive cell.
 

 Routine SETGRP: Setting up the symmetry group for a 
 simple tetragonal supercell.


 Subroutine GETGRP returns: Found  1 space group operations
 (whereof  1 operations were pure point group operations)
 out of a pool of 16 trial point group operations.


The static configuration has the point symmetry C_1 .


Analysis of symmetry for dynamics (positions and initial velocities):
=====================================================================
 Subroutine PRICEL returns:
 Original cell was already a primitive cell.
 

 Routine SETGRP: Setting up the symmetry group for a 
 simple tetragonal supercell.


 Subroutine GETGRP returns: Found  1 space group operations
 (whereof  1 operations were pure point group operations)
 out of a pool of 16 trial point group operations.


The dynamic configuration has the point symmetry C_1 .


Analysis of constrained symmetry for selective dynamics:
=====================================================================
 Subroutine PRICEL returns:
 Original cell was already a primitive cell.
 

 Routine SETGRP: Setting up the symmetry group for a 
 simple tetragonal supercell.


 Subroutine GETGRP returns: Found  1 space group operations
 (whereof  1 operations were pure point group operations)
 out of a pool of 16 trial point group operations.


The constrained configuration has the point symmetry C_1 .


Analysis of structural, dynamic, and magnetic symmetry:
=====================================================================
 Subroutine PRICEL returns:
 Original cell was already a primitive cell.
 

 Routine SETGRP: Setting up the symmetry group for a 
 simple tetragonal supercell.


 Subroutine GETGRP returns: Found  1 space group operations
 (whereof  1 operations were pure point group operations)
 out of a pool of 16 trial point group operations.


The magnetic configuration has the point symmetry C_1 .


 Subroutine INISYM returns: Found  1 space group operations
 (whereof  1 operations are pure point group operations),
 and found     1 'primitive' translations

 
 
 KPOINTS: K-Point Grid                            

Automatic generation of k-mesh.
Space group operators:
 irot       det(A)        alpha          n_x          n_y          n_z        tau_x        tau_y        tau_z
    1     1.000000     0.000000     1.000000     0.000000     0.000000     0.000000     0.000000     0.000000
 
 Subroutine IBZKPT returns following result:
 ===========================================
 
 Found      8 irreducible k-points:
 
 Following reciprocal coordinates:
            Coordinates               Weight
  0.125000  0.125000  0.000000      2.000000
  0.375000  0.125000  0.000000      2.000000
 -0.375000  0.125000  0.000000      2.000000
 -0.125000  0.125000  0.000000      2.000000
  0.125000  0.375000  0.000000      2.000000
  0.375000  0.375000  0.000000      2.000000
 -0.375000  0.375000  0.000000      2.000000
 -0.125000  0.375000  0.000000      2.000000
 
 Following cartesian coordinates:
            Coordinates               Weight
  0.012387  0.012387  0.000000      2.000000
  0.037161  0.012387  0.000000      2.000000
 -0.037161  0.012387  0.000000      2.000000
 -0.012387  0.012387  0.000000      2.000000
  0.012387  0.037161  0.000000      2.000000
  0.037161  0.037161  0.000000      2.000000
 -0.037161  0.037161  0.000000      2.000000
 -0.012387  0.037161  0.000000      2.000000
 


--------------------------------------------------------------------------------------------------------




 Dimension of arrays:
   k-points           NKPTS =      8   k-points in BZ     NKDIM =      8   number of bands    NBANDS=    576
   number of dos      NEDOS =   1200   number of ions     NIONS =     67
   non local maximal  LDIM  =      6   non local SUM 2l+1 LMDIM =     18
   total plane-waves  NPLWV = 960400
   max r-space proj   IRMAX =   6495   max aug-charges    IRDMAX=   9304
   dimension x,y,z NGX =    70 NGY =   70 NGZ =  196
   dimension x,y,z NGXF=   140 NGYF=  140 NGZF=  392
   support grid    NGXF=   140 NGYF=  140 NGZF=  392
   ions per type =              64   1   1   1
   NGX,Y,Z   is equivalent  to a cutoff of  11.53, 11.53, 10.86 a.u.
   NGXF,Y,Z  is equivalent  to a cutoff of  23.06, 23.06, 21.72 a.u.

 SYSTEM =  Pd_100_surface                          
 POSCAR =  Cu N O H                                

 Startparameter for this run:
   NWRITE =      2    write-flag & timer
   PREC   = accura    normal or accurate (medium, high low for compatibility)
   ISTART =      1    job   : 0-new  1-cont  2-samecut
   ICHARG =      0    charge: 1-file 2-atom 10-const
   ISPIN  =      2    spin polarized calculation?
   LNONCOLLINEAR =      F non collinear calculations
   LSORBIT =      F    spin-orbit coupling
   INIWAV =      1    electr: 0-lowe 1-rand  2-diag
   LASPH  =      F    aspherical Exc in radial PAW
   METAGGA=      F    non-selfconsistent MetaGGA calc.

 Electronic Relaxation 1
   ENCUT  =  400.0 eV  29.40 Ry    5.42 a.u.  16.46 16.46 48.92*2*pi/ulx,y,z
   ENINI  =  400.0     initial cutoff
   ENAUG  =  627.1 eV  augmentation charge cutoff
   NELM   =    100;   NELMIN=  2; NELMDL=  0     # of ELM steps 
   EDIFF  = 0.1E-04   stopping-criterion for ELM
   LREAL  =      T    real-space projection
   NLSPLINE    = F    spline interpolate recip. space projectors
   LCOMPAT=      F    compatible to vasp.4.4
   GGA_COMPAT  = T    GGA compatible to vasp.4.4-vasp.4.6
   LMAXPAW     = -100 max onsite density
   LMAXMIX     =    2 max onsite mixed and CHGCAR
   VOSKOWN=      0    Vosko Wilk Nusair interpolation
   ROPT   =   -0.00025  -0.00025  -0.00025  -0.00025
 Ionic relaxation
   EDIFFG = -.2E-01   stopping-criterion for IOM
   NSW    =    500    number of steps for IOM
   NBLOCK =      1;   KBLOCK =    500    inner block; outer block 
   IBRION =      2    ionic relax: 0-MD 1-quasi-New 2-CG
   NFREE  =      1    steps in history (QN), initial steepest desc. (CG)
   ISIF   =      2    stress and relaxation
   IWAVPR =     11    prediction:  0-non 1-charg 2-wave 3-comb
   ISYM   =      2    0-nonsym 1-usesym 2-fastsym
   LCORR  =      T    Harris-Foulkes like correction to forces

   POTIM  = 0.5000    time-step for ionic-motion
   TEIN   =    0.0    initial temperature
   TEBEG  =    0.0;   TEEND  =   0.0 temperature during run
   SMASS  =  -3.00    Nose mass-parameter (am)
   estimated Nose-frequenzy (Omega)   =  0.10E-29 period in steps =****** mass=  -0.233E-26a.u.
   SCALEE = 1.0000    scale energy and forces
   NPACO  =    256;   APACO  = 16.0  distance and # of slots for P.C.
   PSTRESS=    0.0 pullay stress

  Mass of Ions in am
   POMASS =  63.55 14.00 16.00  1.00
  Ionic Valenz
   ZVAL   =  11.00  5.00  6.00  1.00
  Atomic Wigner-Seitz radii
   RWIGS  =  -1.00 -1.00 -1.00 -1.00
  virtual crystal weights 
   VCA    =   1.00  1.00  1.00  1.00
   NELECT =     716.0000    total number of electrons
   NUPDOWN=      -1.0000    fix difference up-down

 DOS related values:
   EMIN   =  10.00;   EMAX   =-10.00  energy-range for DOS
   EFERMI =   0.00
   ISMEAR =     1;   SIGMA  =   0.20  broadening in eV -4-tet -1-fermi 0-gaus

 Electronic relaxation 2 (details)
   IALGO  =     68    algorithm
   LDIAG  =      T    sub-space diagonalisation (order eigenvalues)
   LSUBROT=      F    optimize rotation matrix (better conditioning)
   TURBO    =      0    0=normal 1=particle mesh
   IRESTART =      0    0=no restart 2=restart with 2 vectors
   NREBOOT  =      0    no. of reboots
   NMIN     =      0    reboot dimension
   EREF     =   0.00    reference energy to select bands
   IMIX   =      4    mixing-type and parameters
     AMIX     =   0.40;   BMIX     =  1.00
     AMIX_MAG =   1.60;   BMIX_MAG =  1.00
     AMIN     =   0.10
     WC   =   100.;   INIMIX=   1;  MIXPRE=   1;  MAXMIX= -45

 Intra band minimization:
   WEIMIN = 0.0010     energy-eigenvalue tresh-hold
   EBREAK =  0.43E-08  absolut break condition
   DEPER  =   0.30     relativ break condition  

   TIME   =   0.40     timestep for ELM

  volume/ion in A,a.u.               =      45.60       307.70
  Fermi-wavevector in a.u.,A,eV,Ry     =   1.009354  1.907403 13.861557  1.018796
  Thomas-Fermi vector in A             =   2.142277
 
 Write flags
   LWAVE        =      T    write WAVECAR
   LDOWNSAMPLE  =      F    k-point downsampling of WAVECAR
   LCHARG       =      F    write CHGCAR
   LVTOT        =      F    write LOCPOT, total local potential
   LVHAR        =      F    write LOCPOT, Hartree potential only
   LELF         =      F    write electronic localiz. function (ELF)
   LORBIT       =     11    0 simple, 1 ext, 2 COOP (PROOUT), +10 PAW based schemes


 Dipole corrections
   LMONO  =      F    monopole corrections only (constant potential shift)
   LDIPOL =      T    correct potential (dipole corrections)
   IDIPOL =      3    1-x, 2-y, 3-z, 4-all directions 
   EPSILON=  1.0000000 bulk dielectric constant

 Exchange correlation treatment:
   GGA     =    --    GGA type
   LEXCH   =     8    internal setting for exchange type
   VOSKOWN=      0    Vosko Wilk Nusair interpolation
   LHFCALC =     F    Hartree Fock is set to
   LHFONE  =     F    Hartree Fock one center treatment
   AEXX    =    0.0000 exact exchange contribution

 Linear response parameters
   LEPSILON=     F    determine dielectric tensor
   LRPA    =     F    only Hartree local field effects (RPA)
   LNABLA  =     F    use nabla operator in PAW spheres
   LVEL    =     F    velocity operator in full k-point grid
   LINTERFAST=   F  fast interpolation
   KINTER  =     0    interpolate to denser k-point grid
   CSHIFT  =0.1000    complex shift for real part using Kramers Kronig
   OMEGAMAX=  -1.0    maximum frequency
   DEG_THRESHOLD= 0.2000000E-02 threshold for treating states as degnerate
   RTIME   =   -0.100 relaxation time in fs
  (WPLASMAI=    0.000 imaginary part of plasma frequency in eV, 0.658/RTIME)
   DFIELD  = 0.0000000 0.0000000 0.0000000 field for delta impulse in time
 
 Orbital magnetization related:
   ORBITALMAG=     F  switch on orbital magnetization
   LCHIMAG   =     F  perturbation theory with respect to B field
   DQ        =  0.001000  dq finite difference perturbation B field
   LLRAUG    =     F  two centre corrections for induced B field



--------------------------------------------------------------------------------------------------------


 conjugate gradient relaxation of ions
   using selective dynamics as specified on POSCAR
 charge density and potential will be updated during run
 spin polarized calculation
 RMM-DIIS sequential band-by-band and
  variant of blocked Davidson during initial phase
 perform sub-space diagonalisation
    before iterative eigenvector-optimisation
 modified Broyden-mixing scheme, WC =      100.0
 initial mixing is a Kerker type mixing with AMIX =  0.4000 and BMIX =      1.0000
 Hartree-type preconditioning will be used
 using additional bands          218
 real space projection scheme for non local part
 use partial core corrections
 calculate Harris-corrections to forces 
   (improved forces if not selfconsistent)
 use gradient corrections 
 use of overlap-Matrix (Vanderbilt PP)
 Methfessel and Paxton  Order N= 1 SIGMA  =   0.20


--------------------------------------------------------------------------------------------------------


  energy-cutoff  :      400.00
  volume of cell :     3054.97
      direct lattice vectors                 reciprocal lattice vectors
    10.091200000  0.000000000  0.000000000     0.099096242  0.000000000  0.000000000
     0.000000000 10.091200000  0.000000000     0.000000000  0.099096242  0.000000000
     0.000000000  0.000000000 30.000000000     0.000000000  0.000000000  0.033333333

  length of vectors
    10.091200000 10.091200000 30.000000000     0.099096242  0.099096242  0.033333333


 
 old parameters found on file WAVECAR:
  energy-cutoff  :      400.00
  volume of cell :     3054.97
      direct lattice vectors                 reciprocal lattice vectors
    10.091200000  0.000000000  0.000000000     0.099096242  0.000000000  0.000000000
     0.000000000 10.091200000  0.000000000     0.000000000  0.099096242  0.000000000
     0.000000000  0.000000000 30.000000000     0.000000000  0.000000000  0.033333333

  length of vectors

 
 k-points in units of 2pi/SCALE and weight: K-Point Grid                            
   0.01238703  0.01238703  0.00000000       0.125
   0.03716109  0.01238703  0.00000000       0.125
  -0.03716109  0.01238703  0.00000000       0.125
  -0.01238703  0.01238703  0.00000000       0.125
   0.01238703  0.03716109  0.00000000       0.125
   0.03716109  0.03716109  0.00000000       0.125
  -0.03716109  0.03716109  0.00000000       0.125
  -0.01238703  0.03716109  0.00000000       0.125
 
 k-points in reciprocal lattice and weights: K-Point Grid                            
   0.12500000  0.12500000  0.00000000       0.125
   0.37500000  0.12500000  0.00000000       0.125
  -0.37500000  0.12500000  0.00000000       0.125
  -0.12500000  0.12500000  0.00000000       0.125
   0.12500000  0.37500000  0.00000000       0.125
   0.37500000  0.37500000  0.00000000       0.125
  -0.37500000  0.37500000  0.00000000       0.125
  -0.12500000  0.37500000  0.00000000       0.125
 
 position of ions in fractional coordinates (direct lattice) 
   0.12499981  0.12499981  0.41047690
   0.12499981  0.37499944  0.41047690
   0.12499981  0.62499906  0.41047690
   0.12499981  0.87499868  0.41047690
   0.37499944  0.12499981  0.41047690
   0.37499944  0.37499944  0.41047690
   0.37499944  0.62499906  0.41047690
   0.37499944  0.87499868  0.41047690
   0.62499906  0.12499981  0.41047690
   0.62499906  0.37499944  0.41047690
   0.62499906  0.62499906  0.41047690
   0.62499906  0.87499868  0.41047690
   0.87499868  0.12499981  0.41047690
   0.87499868  0.37499944  0.41047690
   0.87499868  0.62499906  0.41047690
   0.87499868  0.87499868  0.41047690
   0.99928813  0.00019537  0.46972357
   0.99901088  0.24997114  0.46976713
   0.99904935  0.49971252  0.46977682
   0.99932635  0.74953000  0.46973356
   0.25015218  0.99992964  0.46972120
   0.24964158  0.24990030  0.46973408
   0.24966013  0.49984045  0.46974327
   0.25013669  0.74985877  0.46971458
   0.50002998  0.00037322  0.46978300
   0.49946685  0.24988054  0.46982095
   0.49946763  0.49999836  0.46981125
   0.50005628  0.74956424  0.46977887
   0.74941810  0.00042620  0.46976285
   0.74941440  0.24992413  0.46976293
   0.74945062  0.49987060  0.46976143
   0.74941700  0.74941410  0.46975514
   0.12393133  0.12368769  0.52976676
   0.12325926  0.37469594  0.52988226
   0.12397002  0.62584197  0.52978349
   0.12477139  0.87481367  0.53044279
   0.37561401  0.12624103  0.53084165
   0.37465591  0.37481936  0.53034951
   0.37563606  0.62354973  0.53082322
   0.37441270  0.87489103  0.52996800
   0.62374984  0.12722559  0.53107826
   0.62358301  0.37476644  0.53005253
   0.62383223  0.62247346  0.53104689
   0.62460120  0.87482403  0.52987606
   0.87211009  0.12617073  0.53092431
   0.87171018  0.37464783  0.53065955
   0.87212189  0.62317501  0.53093046
   0.87518322  0.87473056  0.52976618
   0.99949727  0.99971927  0.58947333
   0.00078220  0.24927984  0.58916551
   0.00082474  0.50021102  0.58915422
   0.99942374  0.74986579  0.58945859
   0.25013545  0.00011650  0.58955645
   0.24478545  0.24958011  0.58914982
   0.24493375  0.50051523  0.58910205
   0.25007659  0.74998763  0.58955411
   0.49970877  0.99795245  0.58943945
   0.49165890  0.24349306  0.59266977
   0.49198500  0.50567046  0.59245976
   0.49969454  0.75145148  0.58945215
   0.74986679  0.99762808  0.58929669
   0.75278031  0.24372789  0.59232303
   0.75282632  0.50537496  0.59233152
   0.74983624  0.75172058  0.58929249
   0.55235825  0.37481126  0.63601424
   0.69625795  0.37451581  0.63860710
   0.52051723  0.37578543  0.66852614
 
 position of ions in cartesian coordinates  (Angst):
   1.26139810  1.26139810 12.31430703
   1.26139810  3.78419431 12.31430703
   1.26139810  6.30699051 12.31430703
   1.26139810  8.82978672 12.31430703
   3.78419431  1.26139810 12.31430703
   3.78419431  3.78419431 12.31430703
   3.78419431  6.30699051 12.31430703
   3.78419431  8.82978672 12.31430703
   6.30699051  1.26139810 12.31430703
   6.30699051  3.78419431 12.31430703
   6.30699051  6.30699051 12.31430703
   6.30699051  8.82978672 12.31430703
   8.82978672  1.26139810 12.31430703
   8.82978672  3.78419431 12.31430703
   8.82978672  6.30699051 12.31430703
   8.82978672  8.82978672 12.31430703
  10.08401637  0.00197153 14.09170706
  10.08121858  2.52250878 14.09301400
  10.08160677  5.04269899 14.09330460
  10.08440202  7.56365716 14.09200673
   2.52433563 10.09048994 14.09163594
   2.51918310  2.52179387 14.09202243
   2.51937032  5.04398994 14.09229816
   2.52417940  7.56697478 14.09143730
   5.04590257  0.00376624 14.09349003
   5.04021986  2.52159454 14.09462837
   5.04022779  5.04558348 14.09433738
   5.04616791  7.56400268 14.09336611
   7.56252794  0.00430085 14.09288565
   7.56249055  2.52203435 14.09288792
   7.56285609  5.04429418 14.09284301
   7.56251683  7.56248761 14.09265425
   1.25061584  1.24815723 15.89300278
   1.24383387  3.78113165 15.89646788
   1.25100624  6.31549648 15.89350474
   1.25909302  8.82791970 15.91328371
   3.79039608  1.27392348 15.92524942
   3.78072773  3.78237712 15.91048516
   3.79061859  6.29236504 15.92469667
   3.77827348  8.82870038 15.89903986
   6.29438439  1.28385891 15.93234774
   6.29270085  3.78184310 15.90157579
   6.29521577  6.28150414 15.93140657
   6.30297566  8.82802429 15.89628183
   8.80063732  1.27321406 15.92772943
   8.79660176  3.78064622 15.91978664
   8.80075646  6.28858368 15.92791368
   8.83164886  8.82708104 15.89298548
  10.08612685 10.08836714 17.68419981
   0.00789335  2.51553277 17.67496529
   0.00832264  5.04772942 17.67462653
  10.08538482  7.56704569 17.68375769
   2.52416686  0.00117558 17.68669336
   2.47017891  2.51856279 17.67449457
   2.47167542  5.05079925 17.67306151
   2.52357292  7.56827512 17.68662337
   5.04266118 10.07053773 17.68318346
   4.96142824  2.45713716 17.78009307
   4.96471904  5.10282175 17.77379293
   5.04251757  7.58304714 17.68356438
   7.56705574 10.06726450 17.67890072
   7.59645664  2.45950689 17.76969081
   7.59692097  5.09983983 17.76994556
   7.56674745  7.58576275 17.67877470
   5.57395753  3.78229542 19.08042708
   7.02607818  3.77931393 19.15821296
   5.25264347  3.79212590 20.05578405
 


--------------------------------------------------------------------------------------------------------


 k-point  1 :   0.1250 0.1250 0.0000  plane waves:   55537
 k-point  2 :   0.3750 0.1250 0.0000  plane waves:   55487
 k-point  3 :  -0.3750 0.1250 0.0000  plane waves:   55487
 k-point  4 :  -0.1250 0.1250 0.0000  plane waves:   55537
 k-point  5 :   0.1250 0.3750 0.0000  plane waves:   55487
 k-point  6 :   0.3750 0.3750 0.0000  plane waves:   55438
 k-point  7 :  -0.3750 0.3750 0.0000  plane waves:   55438
 k-point  8 :  -0.1250 0.3750 0.0000  plane waves:   55487

 maximum and minimum number of plane-waves per node :     55537    55438

 maximum number of plane-waves:     55537
 maximum index in each direction: 
   IXMAX=   16   IYMAX=   16   IZMAX=   48
   IXMIN=  -16   IYMIN=  -16   IZMIN=  -48


 serial   3D FFT for wavefunctions
 parallel 3D FFT for charge:
    minimum data exchange during FFTs selected (reduces bandwidth)


 total amount of memory used by VASP MPI-rank0   220733. kBytes
=======================================================================

   base      :      30000. kBytes
   nonlr-proj:      56868. kBytes
   fftplans  :       5709. kBytes
   grid      :      82279. kBytes
   one-center:       2083. kBytes
   wavefun   :      43794. kBytes
 
     INWAV:  cpu time   17.5063: real time   17.5798
 Broyden mixing: mesh for mixing (old mesh)
   NGX = 33   NGY = 33   NGZ = 97
  (NGX  =140   NGY  =140   NGZ  =392)
  gives a total of 105633 points

 charge density for first step will be calculated from the start-wavefunctions


--------------------------------------------------------------------------------------------------------


 Maximum index for non-local projection operator         6253
 Maximum index for augmentation-charges          509 (set IRDMAX)


--------------------------------------------------------------------------------------------------------


 initial charge from wavefunction
 First call to EWALD:  gamma=   0.122
 Maximum number of real-space cells 4x 4x 2
 Maximum number of reciprocal cells 2x 2x 5

    FEWALD:  cpu time    0.0114: real time    0.0057


--------------------------------------- Iteration      1(   1)  ---------------------------------------


    POTLOK:  cpu time    0.4885: real time    0.3290
    SETDIJ:  cpu time    0.0425: real time    0.0235
     EDDAV:  cpu time  150.3259: real time   75.3462
       DOS:  cpu time    0.0415: real time    0.0208
    CHARGE:  cpu time    2.4286: real time    2.1328
    MIXING:  cpu time    0.0313: real time    0.0157
    --------------------------------------------
      LOOP:  cpu time  153.3585: real time   77.8681

 eigenvalue-minimisations  : 27648
 total energy-change (2. order) :-0.2374611E+03  (-0.3316032E-02)
 number of electron     716.0000839 magnetization      -0.0000000
 augmentation part      450.1029933 magnetization      -0.0000000

 DIPCOR: dipole corrections for dipol
 direction  3 min pos     1,
 dipolmoment           0.000000      0.000000      0.006886 electrons x Angstroem
 Tr[quadrupol]    -12625.928548

 energy correction for charged system         0.000000 eV
 dipol+quadrupol energy correction           -0.000001 eV
 added-field ion interaction         -0.022155 eV  (added to PSCEN)


 Broyden mixing:
  rms(total) = 0.27824E-01    rms(broyden)= 0.27797E-01
  rms(prec ) = 0.39816E-01
  weight for this iteration     100.00

 Free energy of the ion-electron system (eV)
  ---------------------------------------------------
  alpha Z        PSCENC =      1008.28088214
  Ewald energy   TEWEN  =    589422.02083583
  -Hartree energ DENC   =   -673224.93862871
  -exchange      EXHF   =         0.00000000
  -V(xc)+E(xc)   XCENC  =      2903.60785446
  PAW double counting   =     84854.02958485   -91754.73588503
  entropy T*S    EENTRO =        -0.00897482
  eigenvalues    EBANDS =     -3176.22261366
  atomic energy  EATOM  =     89730.50580390
  Solvation  Ediel_sol  =         0.00000000
  ---------------------------------------------------
  free energy    TOTEN  =      -237.46114104 eV

  energy without entropy =     -237.45216622  energy(sigma->0) =     -237.45814944


--------------------------------------------------------------------------------------------------------




--------------------------------------- Iteration      1(   2)  ---------------------------------------


    POTLOK:  cpu time    0.3458: real time    0.1821
    SETDIJ:  cpu time    0.0175: real time    0.0106
    EDDIAG:  cpu time    9.8698: real time    4.9474
  RMM-DIIS:  cpu time   18.7787: real time    9.4119
    ORTHCH:  cpu time    2.9764: real time    1.4917
       DOS:  cpu time    0.0041: real time    0.0020
    CHARGE:  cpu time    2.4401: real time    2.1390
    MIXING:  cpu time    0.0148: real time    0.0074
    --------------------------------------------
      LOOP:  cpu time   34.4471: real time   18.1921

 eigenvalue-minimisations  : 18484
 total energy-change (2. order) :-0.2387683E-01  (-0.1569453E-02)
 number of electron     716.0000839 magnetization      -0.0000000
 augmentation part      450.1299397 magnetization      -0.0000000

 DIPCOR: dipole corrections for dipol
 direction  3 min pos     1,
 dipolmoment           0.000000      0.000000     -0.079979 electrons x Angstroem
 Tr[quadrupol]    -12625.960737

 energy correction for charged system         0.000000 eV
 dipol+quadrupol energy correction           -0.000189 eV
 added-field ion interaction          0.257324 eV  (added to PSCEN)


 Broyden mixing:
  rms(total) = 0.90489E-01    rms(broyden)= 0.90408E-01
  rms(prec ) = 0.11867E+00
  weight for this iteration     100.00

 eigenvalues of (default mixing * dielectric matrix)
  average eigenvalue GAMMA=   0.2294
  0.2294

 Free energy of the ion-electron system (eV)
  ---------------------------------------------------
  alpha Z        PSCENC =      1008.56017281
  Ewald energy   TEWEN  =    589422.02083583
  -Hartree energ DENC   =   -673225.56338823
  -exchange      EXHF   =         0.00000000
  -V(xc)+E(xc)   XCENC  =      2903.58251696
  PAW double counting   =     84853.76952415   -91754.53328818
  entropy T*S    EENTRO =        -0.01437596
  eigenvalues    EBANDS =     -3175.81281916
  atomic energy  EATOM  =     89730.50580390
  Solvation  Ediel_sol  =         0.00000000
  ---------------------------------------------------
  free energy    TOTEN  =      -237.48501787 eV

  energy without entropy =     -237.47064191  energy(sigma->0) =     -237.48022589


--------------------------------------------------------------------------------------------------------




--------------------------------------- Iteration      1(   3)  ---------------------------------------


    POTLOK:  cpu time    0.3555: real time    0.1814
    SETDIJ:  cpu time    0.0168: real time    0.0102
    EDDIAG:  cpu time    9.9132: real time    4.9683
  RMM-DIIS:  cpu time   18.8618: real time    9.4532
    ORTHCH:  cpu time    2.9158: real time    1.4615
       DOS:  cpu time    0.0043: real time    0.0021
    CHARGE:  cpu time    2.4308: real time    2.1404
    MIXING:  cpu time    0.0037: real time    0.0018
    --------------------------------------------
      LOOP:  cpu time   34.5019: real time   18.2191

 eigenvalue-minimisations  : 18488
 total energy-change (2. order) : 0.2762938E-01  (-0.8402409E-03)
 number of electron     716.0000839 magnetization      -0.0000000
 augmentation part      450.1100172 magnetization      -0.0000000

 DIPCOR: dipole corrections for dipol
 direction  3 min pos     1,
 dipolmoment           0.000000      0.000000     -0.023317 electrons x Angstroem
 Tr[quadrupol]    -12625.944519

 energy correction for charged system         0.000000 eV
 dipol+quadrupol energy correction           -0.000016 eV
 added-field ion interaction          0.075018 eV  (added to PSCEN)


 Broyden mixing:
  rms(total) = 0.53604E-02    rms(broyden)= 0.49500E-02
  rms(prec ) = 0.65907E-02
  weight for this iteration     100.00

 eigenvalues of (default mixing * dielectric matrix)
  average eigenvalue GAMMA=   0.3204
  0.3247  0.3160

 Free energy of the ion-electron system (eV)
  ---------------------------------------------------
  alpha Z        PSCENC =      1008.37804046
  Ewald energy   TEWEN  =    589422.02083583
  -Hartree energ DENC   =   -673225.51536650
  -exchange      EXHF   =         0.00000000
  -V(xc)+E(xc)   XCENC  =      2903.60467353
  PAW double counting   =     84854.05617776   -91754.80928925
  entropy T*S    EENTRO =        -0.01078757
  eigenvalues    EBANDS =     -3175.68747667
  atomic energy  EATOM  =     89730.50580390
  Solvation  Ediel_sol  =         0.00000000
  ---------------------------------------------------
  free energy    TOTEN  =      -237.45738850 eV

  energy without entropy =     -237.44660093  energy(sigma->0) =     -237.45379264


--------------------------------------------------------------------------------------------------------




--------------------------------------- Iteration      1(   4)  ---------------------------------------


    POTLOK:  cpu time    0.3091: real time    0.1714
    SETDIJ:  cpu time    0.0217: real time    0.0109
    EDDIAG:  cpu time   10.0234: real time    5.0236
  RMM-DIIS:  cpu time   18.9779: real time    9.5114
    ORTHCH:  cpu time    2.8872: real time    1.4470
       DOS:  cpu time    0.0044: real time    0.0022
    CHARGE:  cpu time    2.4143: real time    2.1225
    MIXING:  cpu time    0.0041: real time    0.0020
    --------------------------------------------
      LOOP:  cpu time   34.6421: real time   18.2911

 eigenvalue-minimisations  : 18500
 total energy-change (2. order) :-0.1558051E-03  (-0.4017128E-04)
 number of electron     716.0000839 magnetization      -0.0000000
 augmentation part      450.1100420 magnetization      -0.0000000

 DIPCOR: dipole corrections for dipol
 direction  3 min pos     1,
 dipolmoment           0.000000      0.000000     -0.019804 electrons x Angstroem
 Tr[quadrupol]    -12625.945740

 energy correction for charged system         0.000000 eV
 dipol+quadrupol energy correction           -0.000012 eV
 added-field ion interaction          0.063719 eV  (added to PSCEN)


 Broyden mixing:
  rms(total) = 0.19280E-02    rms(broyden)= 0.18383E-02
  rms(prec ) = 0.21789E-02
  weight for this iteration     100.00

 eigenvalues of (default mixing * dielectric matrix)
  average eigenvalue GAMMA=   0.4152
  0.4956  0.4956  0.2546

 Free energy of the ion-electron system (eV)
  ---------------------------------------------------
  alpha Z        PSCENC =      1008.36674520
  Ewald energy   TEWEN  =    589422.02083583
  -Hartree energ DENC   =   -673225.62371763
  -exchange      EXHF   =         0.00000000
  -V(xc)+E(xc)   XCENC  =      2903.60678414
  PAW double counting   =     84854.08292412   -91754.82945591
  entropy T*S    EENTRO =        -0.01058254
  eigenvalues    EBANDS =     -3175.57688142
  atomic energy  EATOM  =     89730.50580390
  Solvation  Ediel_sol  =         0.00000000
  ---------------------------------------------------
  free energy    TOTEN  =      -237.45754430 eV

  energy without entropy =     -237.44696177  energy(sigma->0) =     -237.45401679


--------------------------------------------------------------------------------------------------------




--------------------------------------- Iteration      1(   5)  ---------------------------------------


    POTLOK:  cpu time    0.3677: real time    0.1848
    SETDIJ:  cpu time    0.0193: real time    0.0109
    EDDIAG:  cpu time    9.6494: real time    4.8361
  RMM-DIIS:  cpu time   14.7365: real time    7.9598
    ORTHCH:  cpu time    2.9966: real time    1.5043
       DOS:  cpu time    0.0040: real time    0.0020
    CHARGE:  cpu time    2.4209: real time    2.1304
    MIXING:  cpu time    0.0040: real time    0.0020
    --------------------------------------------
      LOOP:  cpu time   30.1984: real time   16.6302

 eigenvalue-minimisations  : 14424
 total energy-change (2. order) :-0.2505808E-04  (-0.3210819E-05)
 number of electron     716.0000839 magnetization      -0.0000000
 augmentation part      450.1087839 magnetization      -0.0000000

 DIPCOR: dipole corrections for dipol
 direction  3 min pos     1,
 dipolmoment           0.000000      0.000000     -0.019447 electrons x Angstroem
 Tr[quadrupol]    -12625.947647

 energy correction for charged system         0.000000 eV
 dipol+quadrupol energy correction           -0.000011 eV
 added-field ion interaction          0.062570 eV  (added to PSCEN)


 Broyden mixing:
  rms(total) = 0.90226E-03    rms(broyden)= 0.88533E-03
  rms(prec ) = 0.10299E-02
  weight for this iteration     100.00

 eigenvalues of (default mixing * dielectric matrix)
  average eigenvalue GAMMA=   0.4577
  0.6004  0.6004  0.2635  0.3667

 Free energy of the ion-electron system (eV)
  ---------------------------------------------------
  alpha Z        PSCENC =      1008.36559678
  Ewald energy   TEWEN  =    589422.02083583
  -Hartree energ DENC   =   -673225.74927923
  -exchange      EXHF   =         0.00000000
  -V(xc)+E(xc)   XCENC  =      2903.60825684
  PAW double counting   =     84854.16426947   -91754.91476536
  entropy T*S    EENTRO =        -0.01053127
  eigenvalues    EBANDS =     -3175.44775631
  atomic energy  EATOM  =     89730.50580390
  Solvation  Ediel_sol  =         0.00000000
  ---------------------------------------------------
  free energy    TOTEN  =      -237.45756936 eV

  energy without entropy =     -237.44703809  energy(sigma->0) =     -237.45405893


--------------------------------------------------------------------------------------------------------




--------------------------------------- Iteration      1(   6)  ---------------------------------------


    POTLOK:  cpu time    0.3638: real time    0.1844
    SETDIJ:  cpu time    0.0234: real time    0.0145
    EDDIAG:  cpu time    9.6475: real time    4.8352
  RMM-DIIS:  cpu time   11.3894: real time    6.3232
    ORTHCH:  cpu time    2.8981: real time    1.4549
       DOS:  cpu time    0.0046: real time    0.0023
    --------------------------------------------
      LOOP:  cpu time   24.3267: real time   12.8144

 eigenvalue-minimisations  : 12246
 total energy-change (2. order) :-0.5059439E-05  (-0.8704698E-06)
 number of electron     716.0000839 magnetization      -0.0000000
 augmentation part      450.1087839 magnetization      -0.0000000

 DIPCOR: dipole corrections for dipol
 direction  3 min pos     1,
 dipolmoment           0.000000      0.000000     -0.019107 electrons x Angstroem
 Tr[quadrupol]    -12625.949551

 energy correction for charged system         0.000000 eV
 dipol+quadrupol energy correction           -0.000011 eV
 added-field ion interaction          0.061475 eV  (added to PSCEN)


 Free energy of the ion-electron system (eV)
  ---------------------------------------------------
  alpha Z        PSCENC =      1008.36450208
  Ewald energy   TEWEN  =    589422.02083583
  -Hartree energ DENC   =   -673225.84103186
  -exchange      EXHF   =         0.00000000
  -V(xc)+E(xc)   XCENC  =      2903.60808156
  PAW double counting   =     84854.19143394   -91754.93913850
  entropy T*S    EENTRO =        -0.01052220
  eigenvalues    EBANDS =     -3175.35753917
  atomic energy  EATOM  =     89730.50580390
  Solvation  Ediel_sol  =         0.00000000
  ---------------------------------------------------
  free energy    TOTEN  =      -237.45757442 eV

  energy without entropy =     -237.44705222  energy(sigma->0) =     -237.45406702


--------------------------------------------------------------------------------------------------------




 average (electrostatic) potential at core
  the test charge radii are     0.9430  0.7089  0.7215  0.5201
  (the norm of the test charge is              1.0000)
       1 -72.3910       2 -72.3851       3 -72.3909       4 -72.4030       5 -72.3833
       6 -72.3940       7 -72.3834       8 -72.3881       9 -72.3912      10 -72.3826
      11 -72.3911      12 -72.3846      13 -72.3860      14 -72.3940      15 -72.3857
      16 -72.3943      17 -72.8273      18 -72.8199      19 -72.8198      20 -72.8265
      21 -72.8247      22 -72.8230      23 -72.8224      24 -72.8251      25 -72.8227
      26 -72.8044      27 -72.8044      28 -72.8227      29 -72.8235      30 -72.8066
      31 -72.8060      32 -72.8238      33 -72.8032      34 -72.8344      35 -72.8032
      36 -72.8260      37 -72.8427      38 -72.7718      39 -72.8431      40 -72.8036
      41 -72.7977      42 -72.6790      43 -72.7985      44 -72.7974      45 -72.8319
      46 -72.7685      47 -72.8313      48 -72.7996      49 -72.3779      50 -72.3746
      51 -72.3744      52 -72.3779      53 -72.3799      54 -72.3864      55 -72.3869
      56 -72.3798      57 -72.3807      58 -72.6465      59 -72.6520      60 -72.3797
      61 -72.3793      62 -72.4885      63 -72.4889      64 -72.3791      65 -71.6944
      66 -78.0069      67 -40.9719
 
 
 
 E-fermi :  -1.4557     XC(G=0):  -3.8190     alpha+bet : -3.3833


 spin component 1

 k-point     1 :       0.1250    0.1250    0.0000
  band No.  band energies     occupation 
      1     -22.6765      1.00000
      2     -15.9513      1.00000
      3     -10.3765      1.00000
      4      -9.5107      1.00000
      5      -9.2617      1.00000
      6      -9.1845      1.00000
      7      -8.8128      1.00000
      8      -8.5973      1.00000
      9      -8.5743      1.00000
     10      -8.3506      1.00000
     11      -8.2004      1.00000
     12      -7.8509      1.00000
     13      -7.6907      1.00000
     14      -7.6423      1.00000
     15      -7.5875      1.00000
     16      -7.4544      1.00000
     17      -7.1991      1.00000
     18      -7.1480      1.00000
     19      -7.0632      1.00000
     20      -6.8126      1.00000
     21      -6.6402      1.00000
     22      -6.5836      1.00000
     23      -6.5818      1.00000
     24      -6.4440      1.00000
     25      -6.4393      1.00000
     26      -6.4077      1.00000
     27      -6.3900      1.00000
     28      -6.2968      1.00000
     29      -6.2018      1.00000
     30      -6.1769      1.00000
     31      -6.0973      1.00000
     32      -6.0828      1.00000
     33      -6.0789      1.00000
     34      -6.0628      1.00000
     35      -6.0417      1.00000
     36      -6.0304      1.00000
     37      -6.0183      1.00000
     38      -5.9482      1.00000
     39      -5.9242      1.00000
     40      -5.9130      1.00000
     41      -5.9029      1.00000
     42      -5.8656      1.00000
     43      -5.8574      1.00000
     44      -5.8461      1.00000
     45      -5.8333      1.00000
     46      -5.8222      1.00000
     47      -5.8127      1.00000
     48      -5.7781      1.00000
     49      -5.7714      1.00000
     50      -5.7664      1.00000
     51      -5.7374      1.00000
     52      -5.7117      1.00000
     53      -5.7071      1.00000
     54      -5.7058      1.00000
     55      -5.7000      1.00000
     56      -5.6891      1.00000
     57      -5.6802      1.00000
     58      -5.6687      1.00000
     59      -5.6556      1.00000
     60      -5.6284      1.00000
     61      -5.6152      1.00000
     62      -5.6026      1.00000
     63      -5.5248      1.00000
     64      -5.5158      1.00000
     65      -5.5060      1.00000
     66      -5.4888      1.00000
     67      -5.4829      1.00000
     68      -5.4767      1.00000
     69      -5.4529      1.00000
     70      -5.4427      1.00000
     71      -5.4357      1.00000
     72      -5.4244      1.00000
     73      -5.4136      1.00000
     74      -5.3759      1.00000
     75      -5.3438      1.00000
     76      -5.3365      1.00000
     77      -5.3233      1.00000
     78      -5.2998      1.00000
     79      -5.2881      1.00000
     80      -5.2798      1.00000
     81      -5.2193      1.00000
     82      -5.2105      1.00000
     83      -5.1967      1.00000
     84      -5.1805      1.00000
     85      -5.1709      1.00000
     86      -5.1515      1.00000
     87      -5.1464      1.00000
     88      -5.1299      1.00000
     89      -5.1017      1.00000
     90      -5.0979      1.00000
     91      -5.0938      1.00000
     92      -5.0576      1.00000
     93      -5.0432      1.00000
     94      -5.0414      1.00000
     95      -5.0366      1.00000
     96      -5.0298      1.00000
     97      -5.0066      1.00000
     98      -4.9750      1.00000
     99      -4.9700      1.00000
    100      -4.9558      1.00000
    101      -4.9425      1.00000
    102      -4.9307      1.00000
    103      -4.9249      1.00000
    104      -4.9153      1.00000
    105      -4.9059      1.00000
    106      -4.8748      1.00000
    107      -4.8363      1.00000
    108      -4.8319      1.00000
    109      -4.8196      1.00000
    110      -4.8156      1.00000
    111      -4.8138      1.00000
    112      -4.7955      1.00000
    113      -4.7844      1.00000
    114      -4.7789      1.00000
    115      -4.7745      1.00000
    116      -4.7703      1.00000
    117      -4.7485      1.00000
    118      -4.7424      1.00000
    119      -4.7410      1.00000
    120      -4.7368      1.00000
    121      -4.7281      1.00000
    122      -4.7250      1.00000
    123      -4.7243      1.00000
    124      -4.7113      1.00000
    125      -4.6748      1.00000
    126      -4.6505      1.00000
    127      -4.6044      1.00000
    128      -4.5809      1.00000
    129      -4.5779      1.00000
    130      -4.5738      1.00000
    131      -4.5553      1.00000
    132      -4.5456      1.00000
    133      -4.5363      1.00000
    134      -4.5303      1.00000
    135      -4.5267      1.00000
    136      -4.5223      1.00000
    137      -4.5136      1.00000
    138      -4.5080      1.00000
    139      -4.4938      1.00000
    140      -4.4788      1.00000
    141      -4.4493      1.00000
    142      -4.4439      1.00000
    143      -4.4332      1.00000
    144      -4.4138      1.00000
    145      -4.4061      1.00000
    146      -4.4007      1.00000
    147      -4.3889      1.00000
    148      -4.3852      1.00000
    149      -4.3773      1.00000
    150      -4.3729      1.00000
    151      -4.3647      1.00000
    152      -4.3550      1.00000
    153      -4.3505      1.00000
    154      -4.3466      1.00000
    155      -4.3458      1.00000
    156      -4.3426      1.00000
    157      -4.3393      1.00000
    158      -4.3269      1.00000
    159      -4.3184      1.00000
    160      -4.3071      1.00000
    161      -4.2993      1.00000
    162      -4.2936      1.00000
    163      -4.2875      1.00000
    164      -4.2793      1.00000
    165      -4.2754      1.00000
    166      -4.2701      1.00000
    167      -4.2675      1.00000
    168      -4.2648      1.00000
    169      -4.2598      1.00000
    170      -4.2484      1.00000
    171      -4.2421      1.00000
    172      -4.2242      1.00000
    173      -4.2072      1.00000
    174      -4.1712      1.00000
    175      -4.1465      1.00000
    176      -4.1096      1.00000
    177      -4.0997      1.00000
    178      -4.0818      1.00000
    179      -4.0658      1.00000
    180      -4.0552      1.00000
    181      -4.0486      1.00000
    182      -4.0452      1.00000
    183      -4.0313      1.00000
    184      -4.0274      1.00000
    185      -4.0141      1.00000
    186      -4.0130      1.00000
    187      -4.0047      1.00000
    188      -3.9933      1.00000
    189      -3.9818      1.00000
    190      -3.9654      1.00000
    191      -3.9550      1.00000
    192      -3.9461      1.00000
    193      -3.9397      1.00000
    194      -3.9345      1.00000
    195      -3.9322      1.00000
    196      -3.9301      1.00000
    197      -3.9240      1.00000
    198      -3.9208      1.00000
    199      -3.9182      1.00000
    200      -3.9054      1.00000
    201      -3.8944      1.00000
    202      -3.8873      1.00000
    203      -3.8813      1.00000
    204      -3.8720      1.00000
    205      -3.8717      1.00000
    206      -3.8671      1.00000
    207      -3.8649      1.00000
    208      -3.8608      1.00000
    209      -3.8556      1.00000
    210      -3.8511      1.00000
    211      -3.8401      1.00000
    212      -3.8365      1.00000
    213      -3.8341      1.00000
    214      -3.8290      1.00000
    215      -3.8256      1.00000
    216      -3.8186      1.00000
    217      -3.7964      1.00000
    218      -3.7914      1.00000
    219      -3.7886      1.00000
    220      -3.7832      1.00000
    221      -3.7779      1.00000
    222      -3.7672      1.00000
    223      -3.7660      1.00000
    224      -3.7585      1.00000
    225      -3.7556      1.00000
    226      -3.7474      1.00000
    227      -3.7421      1.00000
    228      -3.7368      1.00000
    229      -3.7266      1.00000
    230      -3.7026      1.00000
    231      -3.6896      1.00000
    232      -3.6766      1.00000
    233      -3.6674      1.00000
    234      -3.6586      1.00000
    235      -3.6557      1.00000
    236      -3.6399      1.00000
    237      -3.6290      1.00000
    238      -3.6239      1.00000
    239      -3.6224      1.00000
    240      -3.6210      1.00000
    241      -3.6186      1.00000
    242      -3.6083      1.00000
    243      -3.5862      1.00000
    244      -3.5640      1.00000
    245      -3.5600      1.00000
    246      -3.5544      1.00000
    247      -3.5498      1.00000
    248      -3.5433      1.00000
    249      -3.5346      1.00000
    250      -3.5286      1.00000
    251      -3.5241      1.00000
    252      -3.5162      1.00000
    253      -3.5104      1.00000
    254      -3.5055      1.00000
    255      -3.4966      1.00000
    256      -3.4857      1.00000
    257      -3.4824      1.00000
    258      -3.4767      1.00000
    259      -3.4720      1.00000
    260      -3.4624      1.00000
    261      -3.4562      1.00000
    262      -3.4511      1.00000
    263      -3.4412      1.00000
    264      -3.4393      1.00000
    265      -3.4265      1.00000
    266      -3.4239      1.00000
    267      -3.4131      1.00000
    268      -3.4095      1.00000
    269      -3.4078      1.00000
    270      -3.4033      1.00000
    271      -3.3973      1.00000
    272      -3.3893      1.00000
    273      -3.3831      1.00000
    274      -3.3788      1.00000
    275      -3.3466      1.00000
    276      -3.3287      1.00000
    277      -3.3198      1.00000
    278      -3.3073      1.00000
    279      -3.3035      1.00000
    280      -3.2935      1.00000
    281      -3.2909      1.00000
    282      -3.2690      1.00000
    283      -3.2652      1.00000
    284      -3.2558      1.00000
    285      -3.2446      1.00000
    286      -3.2398      1.00000
    287      -3.2344      1.00000
    288      -3.2288      1.00000
    289      -3.2224      1.00000
    290      -3.2124      1.00000
    291      -3.2111      1.00000
    292      -3.2075      1.00000
    293      -3.2039      1.00000
    294      -3.2011      1.00000
    295      -3.1931      1.00000
    296      -3.1891      1.00000
    297      -3.1886      1.00000
    298      -3.1862      1.00000
    299      -3.1848      1.00000
    300      -3.1833      1.00000
    301      -3.1813      1.00000
    302      -3.1763      1.00000
    303      -3.1652      1.00000
    304      -3.1461      1.00000
    305      -3.1388      1.00000
    306      -3.1067      1.00000
    307      -3.0988      1.00000
    308      -3.0971      1.00000
    309      -3.0831      1.00000
    310      -3.0609      1.00000
    311      -3.0557      1.00000
    312      -3.0461      1.00000
    313      -3.0276      1.00000
    314      -3.0243      1.00000
    315      -3.0198      1.00000
    316      -3.0173      1.00000
    317      -3.0152      1.00000
    318      -3.0095      1.00000
    319      -3.0056      1.00000
    320      -3.0031      1.00000
    321      -2.9996      1.00000
    322      -2.9978      1.00000
    323      -2.9957      1.00000
    324      -2.9935      1.00000
    325      -2.9925      1.00000
    326      -2.9883      1.00000
    327      -2.9818      1.00000
    328      -2.9783      1.00000
    329      -2.9758      1.00000
    330      -2.9728      1.00000
    331      -2.9630      1.00000
    332      -2.9571      1.00000
    333      -2.9544      1.00000
    334      -2.9466      1.00000
    335      -2.9443      1.00000
    336      -2.9428      1.00000
    337      -2.9277      1.00000
    338      -2.9086      1.00000
    339      -2.8308      1.00000
    340      -2.6757      1.00000
    341      -2.6435      1.00000
    342      -2.6166      1.00000
    343      -2.6114      1.00000
    344      -2.5858      1.00000
    345      -2.4595      1.00000
    346      -2.3404      1.00000
    347      -2.2469      1.00000
    348      -2.1663      1.00000
    349      -2.0844      1.00004
    350      -2.0799      1.00005
    351      -2.0741      1.00006
    352      -2.0178      1.00026
    353      -1.9552      1.00117
    354      -1.8547      1.00812
    355      -1.6108      0.98346
    356      -1.4831      0.61456
    357      -1.4368      0.42013
    358      -1.3873      0.22842
    359      -1.2004     -0.03507
    360      -1.1253     -0.02068
    361      -1.0709     -0.01014
    362      -1.0560     -0.00803
    363      -1.0319     -0.00533
    364      -1.0270     -0.00489
    365      -0.9297     -0.00063
    366      -0.7657     -0.00001
    367      -0.4434     -0.00000
    368      -0.4388     -0.00000
    369      -0.3979     -0.00000
    370      -0.3599     -0.00000
    371      -0.2977     -0.00000
    372      -0.1621     -0.00000
    373      -0.1378     -0.00000
    374       0.0631     -0.00000
    375       0.2036     -0.00000
    376       0.2531     -0.00000
    377       0.2646     -0.00000
    378       0.3806     -0.00000
    379       0.4341     -0.00000
    380       0.6149     -0.00000
    381       0.6612     -0.00000
    382       0.7216     -0.00000
    383       0.8151     -0.00000
    384       1.1087     -0.00000
    385       1.2459     -0.00000
    386       1.4448     -0.00000
    387       1.4870     -0.00000
    388       1.5250     -0.00000
    389       1.5400     -0.00000
    390       1.6020     -0.00000
    391       1.8824     -0.00000
    392       1.9352     -0.00000
    393       2.0660     -0.00000
    394       2.2422     -0.00000
    395       2.3900     -0.00000
    396       2.4070     -0.00000
    397       2.4315     -0.00000
    398       2.6006     -0.00000
    399       2.6265     -0.00000
    400       2.7282     -0.00000
    401       2.8668     -0.00000
    402       2.9253     -0.00000
    403       2.9500     -0.00000
    404       3.0194     -0.00000
    405       3.1094     -0.00000
    406       3.1895     -0.00000
    407       3.3889     -0.00000
    408       3.4142     -0.00000
    409       3.5357     -0.00000
    410       3.5753     -0.00000
    411       3.7225     -0.00000
    412       3.7754     -0.00000
    413       3.8351     -0.00000
    414       3.9310     -0.00000
    415       3.9569     -0.00000
    416       4.0625      0.00000
    417       4.0881      0.00000
    418       4.1205      0.00000
    419       4.1636      0.00000
    420       4.1791      0.00000
    421       4.2244      0.00000
    422       4.2661      0.00000
    423       4.3746      0.00000
    424       4.4872      0.00000
    425       4.5219      0.00000
    426       4.5306      0.00000
    427       4.6237      0.00000
    428       4.6647      0.00000
    429       4.7376      0.00000
    430       4.7949      0.00000
    431       4.8139      0.00000
    432       4.8420      0.00000
    433       4.8555      0.00000
    434       4.8662      0.00000
[...]
   0.392E+01 0.613E+01 0.139E+04   -.396E+01 -.619E+01 -.139E+04   0.380E-01 0.547E-01 -.252E+00   0.400E-02 0.181E-02 0.667E-01
   0.400E+01 -.601E+01 0.139E+04   -.403E+01 0.607E+01 -.139E+04   0.378E-01 -.534E-01 -.247E+00   0.385E-02 -.500E-02 0.646E-01
   0.327E+01 -.391E+01 0.138E+04   -.321E+01 0.389E+01 -.138E+04   -.611E-01 0.185E-01 -.484E+00   0.466E-02 -.451E-02 0.543E-01
   -.368E+01 0.433E+01 0.138E+04   0.363E+01 -.425E+01 -.138E+04   0.629E-01 -.718E-01 -.560E+00   -.385E-02 -.899E-03 0.588E-01
   -.399E+01 0.693E+01 0.140E+04   0.405E+01 -.702E+01 -.140E+04   -.588E-01 0.867E-01 -.303E+00   -.709E-05 0.144E-02 0.656E-01
   -.405E+01 -.684E+01 0.140E+04   0.411E+01 0.693E+01 -.140E+04   -.585E-01 -.896E-01 -.301E+00   0.112E-03 -.159E-02 0.638E-01
   -.365E+01 -.440E+01 0.138E+04   0.359E+01 0.433E+01 -.138E+04   0.646E-01 0.747E-01 -.561E+00   -.470E-02 -.356E-02 0.587E-01
   0.162E+00 0.160E+02 -.121E+04   -.218E+00 -.161E+02 0.121E+04   0.288E-01 0.807E-01 0.510E+00   0.280E-01 0.265E-01 0.504E-01
   -.324E+00 -.490E-01 -.120E+04   0.297E+00 0.453E-01 0.120E+04   -.133E-01 -.140E-01 0.583E+00   0.434E-01 0.172E-01 0.474E-01
   0.106E+00 -.162E+02 -.121E+04   -.162E+00 0.163E+02 0.121E+04   0.322E-01 -.967E-01 0.513E+00   0.255E-01 -.442E-02 0.458E-01
   -.934E-01 -.511E-01 -.125E+04   0.115E+00 0.490E-01 0.125E+04   -.233E-01 -.504E-02 0.269E+00   0.212E-02 0.814E-02 0.480E-01
   0.221E+02 0.234E+02 -.123E+04   -.215E+02 -.229E+02 0.123E+04   -.622E+00 -.570E+00 -.302E+00   0.237E-01 0.151E-03 0.582E-01
   0.175E+02 0.125E+00 -.121E+04   -.175E+02 -.124E+00 0.121E+04   -.943E-01 -.311E-02 0.288E+00   0.443E-01 0.360E-02 0.787E-01
   0.224E+02 -.236E+02 -.123E+04   -.218E+02 0.230E+02 0.123E+04   -.619E+00 0.571E+00 -.297E+00   0.190E-01 -.774E-04 0.544E-01
   0.130E+02 -.659E-01 -.122E+04   -.131E+02 0.653E-01 0.122E+04   0.124E+00 0.604E-03 0.375E+00   -.304E-02 0.788E-03 0.371E-01
   0.700E+00 0.254E+02 -.123E+04   -.788E+00 -.249E+02 0.123E+04   0.714E-01 -.494E+00 -.370E+00   0.186E-01 0.568E-02 0.721E-01
   0.443E+01 0.390E+00 -.118E+04   -.446E+01 -.389E+00 0.118E+04   0.899E-02 -.120E-02 0.958E+00   0.326E-01 -.205E-03 0.772E-01
   0.536E+00 -.257E+02 -.123E+04   -.628E+00 0.252E+02 0.123E+04   0.757E-01 0.499E+00 -.367E+00   0.174E-01 -.959E-02 0.702E-01
   -.635E+00 -.258E-01 -.120E+04   0.655E+00 0.258E-01 0.120E+04   -.174E-01 0.279E-02 0.551E+00   -.222E-02 -.300E-02 0.379E-01
   -.234E+02 0.250E+02 -.123E+04   0.229E+02 -.246E+02 0.123E+04   0.439E+00 -.380E+00 -.989E-01   0.216E-01 0.373E-02 0.635E-01
   -.215E+02 -.357E-01 -.121E+04   0.215E+02 0.323E-01 0.121E+04   0.229E-01 -.761E-02 0.211E+00   0.378E-01 0.118E-01 0.539E-01
   -.235E+02 -.251E+02 -.123E+04   0.230E+02 0.247E+02 0.123E+04   0.436E+00 0.364E+00 -.939E-01   0.239E-01 0.152E-01 0.617E-01
   -.128E+02 -.680E-01 -.121E+04   0.129E+02 0.677E-01 0.121E+04   -.580E-01 -.454E-02 0.312E+00   0.281E-03 0.571E-02 0.509E-01
   -.217E+02 0.239E+02 -.381E+04   0.218E+02 -.241E+02 0.381E+04   -.175E+00 0.175E+00 0.355E+01   -.118E-01 0.301E-02 0.208E-01
   -.444E+02 0.228E+02 -.378E+04   0.446E+02 -.229E+02 0.377E+04   -.180E+00 0.962E-01 0.345E+01   0.171E-01 0.475E-02 0.187E-01
   -.445E+02 -.231E+02 -.378E+04   0.447E+02 0.232E+02 0.377E+04   -.178E+00 -.945E-01 0.345E+01   0.189E-01 -.236E-02 0.228E-01
   -.217E+02 -.237E+02 -.381E+04   0.219E+02 0.238E+02 0.381E+04   -.179E+00 -.174E+00 0.355E+01   -.581E-02 -.492E-02 0.257E-01
   0.232E+02 0.250E+02 -.381E+04   -.233E+02 -.252E+02 0.381E+04   0.171E+00 0.147E+00 0.354E+01   -.298E-02 0.626E-03 0.151E-01
   0.432E+02 0.215E+02 -.377E+04   -.435E+02 -.216E+02 0.377E+04   0.258E+00 0.135E+00 0.339E+01   0.404E-01 0.716E-03 0.352E-01
   0.430E+02 -.220E+02 -.377E+04   -.433E+02 0.221E+02 0.377E+04   0.264E+00 -.117E+00 0.338E+01   0.371E-01 -.168E-01 0.426E-01
   0.230E+02 -.245E+02 -.381E+04   -.232E+02 0.246E+02 0.381E+04   0.163E+00 -.131E+00 0.354E+01   0.121E-02 -.171E-01 0.127E-01
   0.171E+02 0.499E+02 -.379E+04   -.171E+02 -.498E+02 0.378E+04   0.573E-01 -.421E-01 0.326E+01   -.844E-02 0.268E-02 0.149E-01
   0.101E+03 0.143E+03 -.368E+04   -.102E+03 -.143E+03 0.368E+04   0.586E+00 0.563E+00 -.370E+00   0.583E-01 0.188E-01 0.137E-01
   0.101E+03 -.142E+03 -.368E+04   -.102E+03 0.143E+03 0.368E+04   0.568E+00 -.577E+00 -.397E+00   0.487E-01 0.108E-01 0.440E-01
   0.173E+02 -.497E+02 -.379E+04   -.173E+02 0.497E+02 0.378E+04   0.555E-01 0.220E-01 0.327E+01   -.639E-02 0.939E-02 0.690E-02
   -.188E+02 0.489E+02 -.378E+04   0.188E+02 -.488E+02 0.378E+04   0.130E-01 -.710E-01 0.319E+01   -.212E-01 0.787E-02 0.204E-01
   -.100E+03 0.149E+03 -.367E+04   0.102E+03 -.150E+03 0.367E+04   -.159E+01 0.160E+01 0.294E+01   0.212E-01 0.299E-01 0.235E-01
   -.101E+03 -.149E+03 -.367E+04   0.102E+03 0.151E+03 0.367E+04   -.162E+01 -.161E+01 0.295E+01   0.228E-01 -.104E-01 0.212E-01
   -.188E+02 -.489E+02 -.378E+04   0.188E+02 0.488E+02 0.378E+04   0.119E-01 0.683E-01 0.319E+01   -.205E-01 -.410E-02 0.205E-01
   0.124E+03 -.276E+00 -.215E+04   -.136E+03 0.133E+00 0.213E+04   0.121E+02 0.148E+00 0.124E+02   -.280E-02 -.430E-02 -.666E-02
   -.148E+03 0.189E+00 -.263E+04   0.176E+03 -.240E+00 0.265E+04   -.281E+02 0.618E-01 -.180E+02   0.483E-03 -.857E-02 -.101E-01
   0.367E+02 -.605E+00 -.483E+03   -.390E+02 0.656E+00 0.489E+03   0.231E+01 -.561E-01 -.679E+01   0.795E-03 -.221E-03 -.355E-02
 -----------------------------------------------------------------------------------------------
   0.152E+02 -.159E+00 0.228E+02   0.199E-12 -.329E-12 0.276E-10   -.158E+02 0.332E-01 -.252E+02   0.528E+00 0.119E+00 0.250E+01
 
 
 POSITION                                       TOTAL-FORCE (eV/Angst)
 -----------------------------------------------------------------------------------
      1.26140      1.26140     12.31431        -0.005569     -0.015449     -0.007367
      1.26140      3.78419     12.31431        -0.010592     -0.001632      0.009471
      1.26140      6.30699     12.31431        -0.005329      0.011093     -0.007093
      1.26140      8.82979     12.31431        -0.004741     -0.001724      0.047467
      3.78419      1.26140     12.31431         0.004338     -0.000257     -0.006025
      3.78419      3.78419     12.31431         0.010327     -0.001120      0.010768
      3.78419      6.30699     12.31431         0.003948     -0.003022     -0.005560
      3.78419      8.82979     12.31431        -0.000384     -0.000953     -0.001790
      6.30699      1.26140     12.31431        -0.012400      0.021267      0.003169
      6.30699      3.78419     12.31431        -0.014014     -0.001296      0.008716
      6.30699      6.30699     12.31431        -0.011832     -0.024859      0.003216
      6.30699      8.82979     12.31431        -0.002957     -0.001038     -0.003585
      8.82979      1.26140     12.31431        -0.018407      0.000101     -0.005606
      8.82979      3.78419     12.31431        -0.030607     -0.001840      0.000103
      8.82979      6.30699     12.31431        -0.017951     -0.005208     -0.005644
      8.82979      8.82979     12.31431        -0.011085     -0.001539      0.014863
     10.08358      0.00231     14.09114         0.002382      0.000647      0.002111
     10.08081      2.52301     14.09267         0.003328      0.000066      0.000623
     10.08097      5.04276     14.09285         0.003150      0.001520     -0.000297
     10.08360      7.56341     14.09134         0.003065      0.001916      0.001317
      2.52446     10.09082     14.09050        -0.000847      0.000424      0.001145
      2.51940      2.52215     14.09114         0.002471      0.001239      0.000544
      2.51939      5.04426     14.09133         0.002763      0.000242     -0.000353
      2.52432      7.56704     14.09037        -0.001080      0.001417      0.000165
      5.04595      0.00386     14.09310         0.001118      0.000107     -0.000745
      5.03980      2.52160     14.09462         0.003102      0.000115      0.001733
      5.03996      5.04542     14.09455         0.002639     -0.000498      0.001099
      5.04604      7.56335     14.09296         0.001650      0.000413     -0.000494
      7.56201      0.00454     14.09275         0.002428      0.000002      0.000258
      7.56258      2.52196     14.09289         0.002293     -0.000179      0.001573
      7.56280      5.04421     14.09293         0.002008      0.000531      0.001261
      7.56238      7.56185     14.09256         0.001219      0.000876      0.000102
      1.25277      1.25036     15.89367         0.000906     -0.001521     -0.005797
      1.24666      3.78261     15.89628         0.004806     -0.000450     -0.002625
      1.25278      6.31490     15.89355         0.001861      0.002327     -0.004194
      1.25930      8.82833     15.91432        -0.000820      0.001012     -0.006442
      3.79057      1.27289     15.92483         0.005161      0.003057     -0.001769
      3.78277      3.78269     15.91154         0.004990      0.000743     -0.002380
      3.79070      6.29349     15.92395         0.004451     -0.003619     -0.000694
      3.77823      8.82860     15.89877        -0.002369      0.000708     -0.006698
      6.29607      1.28325     15.93295         0.001074      0.001757     -0.003077
      6.29521      3.78211     15.90227         0.004343     -0.000417     -0.002345
      6.29681      6.28141     15.93211         0.000369     -0.000146     -0.003448
      6.30306      8.82793     15.89645         0.000123     -0.000122     -0.007382
      8.80294      1.27267     15.92867         0.000117      0.002442     -0.004943
      8.79976      3.78152     15.91981         0.004507      0.000956     -0.004788
      8.80315      6.29051     15.92885         0.000603     -0.001354     -0.005278
      8.83185      8.82731     15.89396         0.000369      0.001049     -0.005657
     10.08515     10.08819     17.68283         0.001203      0.000841      0.000636
      0.00905      2.51526     17.67353         0.007723      0.002529     -0.000104
      0.00977      5.04802     17.67345         0.007024     -0.000073      0.000546
     10.08491      7.56682     17.68266         0.001342      0.000827      0.001242
      2.52340      0.00119     17.68493        -0.000275     -0.001516      0.000088
      2.47155      2.51838     17.67433         0.007939     -0.000212      0.000848
      2.47288      5.04962     17.67356         0.007567      0.000252      0.001067
      2.52307      7.56706     17.68469         0.000219     -0.000192      0.000132
      5.04205     10.06833     17.68159        -0.001142      0.007404     -0.000371
      4.96449      2.45829     17.77854         0.006320      0.000709     -0.000790
      4.96709      5.10409     17.77396         0.004689      0.002226      0.003270
      5.04196      7.58558     17.68138        -0.000881     -0.004116     -0.000446
      7.56592     10.06598     17.67737        -0.000025      0.005461      0.001338
      7.59904      2.46170     17.76865         0.004966      0.001063     -0.000531
      7.59951      5.09947     17.76855         0.005508      0.000550      0.000168
      7.56569      7.58680     17.67722         0.000348     -0.002038      0.001535
      5.57489      3.78260     19.08143        -0.003695      0.001513     -0.018408
      7.02722      3.78025     19.15745         0.010884      0.002367      0.004211
      5.25215      3.79059     20.05670         0.005361     -0.005379      0.007938
 -----------------------------------------------------------------------------------
    total drift:                               -0.036472     -0.006818      0.023673


--------------------------------------------------------------------------------------------------------



  FREE ENERGIE OF THE ION-ELECTRON SYSTEM (eV)
  ---------------------------------------------------
  free  energy   TOTEN  =      -259.48685991 eV

  energy  without entropy=     -259.47636545  energy(sigma->0) =     -259.48336176
 
 d Force = 0.7573266E-04[ 0.538E-04, 0.976E-04]  d Energy = 0.1164389E-03-0.407E-04
 d Force =-0.1324617E+02[-0.132E+02,-0.132E+02]  d Ewald  =-0.1324617E+02-0.103E-06


--------------------------------------------------------------------------------------------------------


    POTLOK:  cpu time    0.1677: real time    0.1615


--------------------------------------------------------------------------------------------------------




--------------------------------------------------------------------------------------------------------


  
 reached required accuracy - stopping structural energy minimisation
 writing wavefunctions
     LOOP+:  cpu time  301.9988: real time  162.2356
    4ORBIT:  cpu time    0.0000: real time    0.0000
 


 total charge     
 
# of ion       s       p       d       tot
------------------------------------------
    1        0.452   0.276   9.209   9.937
    2        0.452   0.276   9.210   9.937
    3        0.452   0.276   9.209   9.937
    4        0.451   0.278   9.207   9.936
    5        0.454   0.278   9.207   9.938
    6        0.451   0.279   9.206   9.936
    7        0.454   0.278   9.207   9.938
    8        0.452   0.277   9.208   9.937
    9        0.452   0.279   9.206   9.937
   10        0.452   0.276   9.208   9.937
   11        0.452   0.279   9.206   9.937
   12        0.451   0.277   9.209   9.937
   13        0.454   0.278   9.207   9.939
   14        0.452   0.278   9.207   9.937
   15        0.454   0.278   9.207   9.939
   16        0.451   0.277   9.209   9.937
   17        0.453   0.400   9.176  10.029
   18        0.453   0.400   9.177  10.030
   19        0.453   0.400   9.177  10.030
   20        0.453   0.400   9.176  10.029
   21        0.454   0.400   9.177  10.030
   22        0.453   0.400   9.177  10.030
   23        0.453   0.400   9.177  10.030
   24        0.454   0.400   9.176  10.030
   25        0.453   0.400   9.176  10.029
   26        0.456   0.399   9.179  10.033
   27        0.456   0.399   9.179  10.033
   28        0.453   0.400   9.176  10.029
   29        0.453   0.400   9.176  10.029
   30        0.456   0.399   9.178  10.034
   31        0.456   0.399   9.179  10.034
   32        0.453   0.400   9.176  10.029
   33        0.454   0.400   9.180  10.034
   34        0.454   0.405   9.175  10.034
   35        0.454   0.400   9.180  10.034
   36        0.453   0.404   9.175  10.032
   37        0.455   0.408   9.168  10.031
   38        0.452   0.392   9.178  10.022
   39        0.455   0.408   9.168  10.031
   40        0.454   0.400   9.179  10.033
   41        0.449   0.402   9.171  10.022
   42        0.452   0.367   9.191  10.010
   43        0.449   0.402   9.171  10.023
   44        0.456   0.399   9.178  10.033
   45        0.453   0.408   9.170  10.030
   46        0.451   0.394   9.179  10.023
   47        0.453   0.408   9.170  10.030
   48        0.454   0.400   9.179  10.033
   49        0.450   0.277   9.210   9.937
   50        0.458   0.281   9.213   9.953
   51        0.458   0.281   9.213   9.952
   52        0.450   0.277   9.210   9.937
   53        0.449   0.277   9.209   9.936
   54        0.459   0.282   9.212   9.954
   55        0.459   0.282   9.212   9.953
   56        0.449   0.277   9.209   9.936
   57        0.456   0.287   9.207   9.950
   58        0.452   0.366   9.168   9.987
   59        0.453   0.367   9.168   9.988
   60        0.456   0.287   9.207   9.950
   61        0.456   0.287   9.208   9.951
   62        0.428   0.326   9.189   9.943
   63        0.428   0.325   9.189   9.942
   64        0.456   0.287   9.208   9.951
   65        1.241   2.449   0.000   3.690
   66        1.603   3.371   0.000   4.974
   67        0.638   0.076   0.000   0.714
--------------------------------------------------
tot         32.444  27.892 588.202 648.539
 


 magnetization (x)
 
# of ion       s       p       d       tot
------------------------------------------
    1        0.000   0.000  -0.000   0.000
    2       -0.000  -0.000   0.000   0.000
    3       -0.000   0.000   0.000  -0.000
    4       -0.000   0.000  -0.000   0.000
    5       -0.000   0.000  -0.000  -0.000
    6        0.000   0.000   0.000   0.000
    7        0.000   0.000   0.000   0.000
    8       -0.000  -0.000  -0.000  -0.000
    9        0.000  -0.000  -0.000  -0.000
   10        0.000   0.000   0.000   0.000
   11        0.000  -0.000  -0.000  -0.000
   12       -0.000  -0.000  -0.000  -0.000
   13       -0.000  -0.000  -0.000  -0.000
   14        0.000   0.000   0.000   0.000
   15        0.000   0.000  -0.000   0.000
   16       -0.000   0.000  -0.000  -0.000
   17       -0.000   0.000  -0.000  -0.000
   18       -0.000   0.000  -0.000  -0.000
   19       -0.000   0.000   0.000   0.000
   20       -0.000   0.000  -0.000  -0.000
   21        0.000   0.000  -0.000   0.000
   22       -0.000   0.000  -0.000  -0.000
   23       -0.000   0.000  -0.000  -0.000
   24       -0.000   0.000  -0.000  -0.000
   25       -0.000   0.000  -0.000  -0.000
   26       -0.000   0.000  -0.000  -0.000
   27       -0.000   0.000  -0.000  -0.000
   28       -0.000   0.000   0.000   0.000
   29       -0.000   0.000  -0.000  -0.000
   30       -0.000  -0.000   0.000  -0.000
   31       -0.000   0.000   0.000   0.000
   32       -0.000  -0.000   0.000  -0.000
   33        0.000  -0.000  -0.000   0.000
   34        0.000  -0.000  -0.000  -0.000
   35       -0.000  -0.000   0.000  -0.000
   36        0.000  -0.000   0.000   0.000
   37        0.000  -0.000   0.000   0.000
   38       -0.000   0.000  -0.000   0.000
   39        0.000  -0.000  -0.000  -0.000
   40        0.000  -0.000  -0.000  -0.000
   41        0.000   0.000  -0.000   0.000
   42        0.000  -0.000  -0.000   0.000
   43        0.000  -0.000  -0.000  -0.000
   44        0.000  -0.000   0.000   0.000
   45        0.000   0.000   0.000   0.000
   46       -0.000  -0.000   0.000  -0.000
   47       -0.000  -0.000   0.000  -0.000
   48        0.000   0.000  -0.000   0.000
   49        0.000  -0.000   0.000  -0.000
   50        0.000  -0.000  -0.000  -0.000
   51       -0.000  -0.000  -0.000  -0.000
   52       -0.000  -0.000   0.000   0.000
   53        0.000  -0.000  -0.000  -0.000
   54       -0.000  -0.000  -0.000  -0.000
   55        0.000   0.000   0.000   0.000
   56        0.000  -0.000   0.000  -0.000
   57       -0.000  -0.000  -0.000  -0.000
   58       -0.000   0.000   0.000   0.000
   59        0.000  -0.000   0.000  -0.000
   60        0.000  -0.000   0.000   0.000
   61        0.000  -0.000   0.000  -0.000
   62        0.000   0.000  -0.000   0.000
   63       -0.000  -0.000   0.000  -0.000
   64        0.000  -0.000   0.000   0.000
   65        0.000  -0.000   0.000  -0.000
   66       -0.000  -0.000   0.000  -0.000
   67       -0.000   0.000   0.000  -0.000
--------------------------------------------------
tot         -0.000  -0.000  -0.000  -0.000
 

 total amount of memory used by VASP MPI-rank0   220733. kBytes
=======================================================================

   base      :      30000. kBytes
   nonlr-proj:      56868. kBytes
   fftplans  :       5709. kBytes
   grid      :      82279. kBytes
   one-center:       2083. kBytes
   wavefun   :      43794. kBytes
 
  
  
 General timing and accounting informations for this job:
 ========================================================
  
                  Total CPU time used (sec):     1950.443
                            User time (sec):     1880.555
                          System time (sec):       69.888
                         Elapsed time (sec):     1041.910
  
                   Maximum memory used (kb):      680116.
                   Average memory used (kb):           0.
  
                          Minor page faults:       467048
                          Major page faults:            0
                 Voluntary context switches:        18914
