 vasp.5.4.4.18Apr17-6-g9f103f2a35 (build May 01 2020 14:57:12) complex          
  
 executed on             LinuxIFC date 2022.03.11  15:50:17
 running on   48 total cores
 distrk:  each k-point on   48 cores,    1 groups
 distr:  one band on NCORES_PER_BAND=   1 cores,   48 groups


--------------------------------------------------------------------------------------------------------


 INCAR:
 POTCAR:    PAW_PBE N 08Apr2002                   
 POTCAR:    PAW_PBE O 08Apr2002                   
 POTCAR:    PAW_PBE Pd 04Jan2005                  

 ----------------------------------------------------------------------------- 
|                                                                             |
|           W    W    AA    RRRRR   N    N  II  N    N   GGGG   !!!           |
|           W    W   A  A   R    R  NN   N  II  NN   N  G    G  !!!           |
|           W    W  A    A  R    R  N N  N  II  N N  N  G       !!!           |
|           W WW W  AAAAAA  RRRRR   N  N N  II  N  N N  G  GGG   !            |
|           WW  WW  A    A  R   R   N   NN  II  N   NN  G    G                |
|           W    W  A    A  R    R  N    N  II  N    N   GGGG   !!!           |
|                                                                             |
|      For optimal performance we recommend to set                            |
|        NCORE= 4 - approx SQRT( number of cores)                             |
|      NCORE specifies how many cores store one orbital (NPAR=cpu/NCORE).     |
|      This setting can  greatly improve the performance of VASP for DFT.     |
|      The default,   NCORE=1            might be grossly inefficient         |
|      on modern multi-core architectures or massively parallel machines.     |
|      Do your own testing !!!!                                               |
|      Unfortunately you need to use the default for GW and RPA calculations. |
|      (for HF NCORE is supported but not extensively tested yet)             |
|                                                                             |
 ----------------------------------------------------------------------------- 

 POTCAR:    PAW_PBE N 08Apr2002                   
   VRHFIN =N: s2p3                                                              
   LEXCH  = PE                                                                  
   EATOM  =   264.5486 eV,   19.4438 Ry                                         
                                                                                
   TITEL  = PAW_PBE N 08Apr2002                                                 
   LULTRA =        F    use ultrasoft PP ?                                      
   IUNSCR =        1    unscreen: 0-lin 1-nonlin 2-no                           
   RPACOR =    1.200    partial core radius                                     
   POMASS =   14.001; ZVAL   =    5.000    mass and valenz                      
   RCORE  =    1.500    outmost cutoff radius                                   
   RWIGS  =    1.400; RWIGS  =    0.741    wigner-seitz radius (au A)           
   ENMAX  =  400.000; ENMIN  =  300.000 eV                                      
   ICORE  =        2    local potential                                         
   LCOR   =        T    correct aug charges                                     
   LPAW   =        T    paw PP                                                  
   EAUG   =  627.112                                                            
   DEXC   =    0.000                                                            
   RMAX   =    1.529    core radius for proj-oper                               
   RAUG   =    1.300    factor for augmentation sphere                          
   RDEP   =    1.514    radius for radial grids                                 
   RDEPT  =    1.338    core radius for aug-charge                              
                                                                                
   Atomic configuration                                                         
    4 entries                                                                   
     n  l   j            E        occ.                                          
     1  0  0.50      -384.7179   2.0000                                         
     2  0  0.50       -18.5828   2.0000                                         
     2  1  0.50        -7.0898   3.0000                                         
     3  2  1.50        -6.8029   0.0000                                         
   Description                                                                  
     l       E           TYP  RCUT    TYP  RCUT                                 
     0    -18.5828119     23  1.200                                             
     0    -13.5018863     23  1.200                                             
     1     -7.0897853     23  1.500                                             
     1      9.5240782     23  1.500                                             
     2     -6.8029130      7  1.500                                             
  local pseudopotential read in
  partial core-charges read in
  partial kinetic energy density read in
  atomic valenz-charges read in
  non local Contribution for L=           0  read in
    real space projection operators read in
  non local Contribution for L=           0  read in
    real space projection operators read in
  non local Contribution for L=           1  read in
    real space projection operators read in
  non local Contribution for L=           1  read in
    real space projection operators read in
    PAW grid and wavefunctions read in
 
   number of l-projection  operators is LMAX  =           4
   number of lm-projection operators is LMMAX =           8
 
 POTCAR:    PAW_PBE O 08Apr2002                   
   VRHFIN =O: s2p4                                                              
   LEXCH  = PE                                                                  
   EATOM  =   432.3788 eV,   31.7789 Ry                                         
                                                                                
   TITEL  = PAW_PBE O 08Apr2002                                                 
   LULTRA =        F    use ultrasoft PP ?                                      
   IUNSCR =        1    unscreen: 0-lin 1-nonlin 2-no                           
   RPACOR =    1.200    partial core radius                                     
   POMASS =   16.000; ZVAL   =    6.000    mass and valenz                      
   RCORE  =    1.520    outmost cutoff radius                                   
   RWIGS  =    1.550; RWIGS  =    0.820    wigner-seitz radius (au A)           
   ENMAX  =  400.000; ENMIN  =  300.000 eV                                      
   ICORE  =        2    local potential                                         
   LCOR   =        T    correct aug charges                                     
   LPAW   =        T    paw PP                                                  
   EAUG   =  605.392                                                            
   DEXC   =    0.000                                                            
   RMAX   =    1.553    core radius for proj-oper                               
   RAUG   =    1.300    factor for augmentation sphere                          
   RDEP   =    1.550    radius for radial grids                                 
   RDEPT  =    1.329    core radius for aug-charge                              
                                                                                
   Atomic configuration                                                         
    4 entries                                                                   
     n  l   j            E        occ.                                          
     1  0  0.50      -514.6923   2.0000                                         
     2  0  0.50       -23.9615   2.0000                                         
     2  1  0.50        -9.0305   4.0000                                         
     3  2  1.50        -9.5241   0.0000                                         
   Description                                                                  
     l       E           TYP  RCUT    TYP  RCUT                                 
     0    -23.9615318     23  1.200                                             
     0     -9.5240782     23  1.200                                             
     1     -9.0304911     23  1.520                                             
     1      8.1634956     23  1.520                                             
     2     -9.5240782      7  1.500                                             
  local pseudopotential read in
  partial core-charges read in
  partial kinetic energy density read in
  kinetic energy density of atom read in
  atomic valenz-charges read in
  non local Contribution for L=           0  read in
    real space projection operators read in
  non local Contribution for L=           0  read in
    real space projection operators read in
  non local Contribution for L=           1  read in
    real space projection operators read in
  non local Contribution for L=           1  read in
    real space projection operators read in
    PAW grid and wavefunctions read in
 
   number of l-projection  operators is LMAX  =           4
   number of lm-projection operators is LMMAX =           8
 
 POTCAR:    PAW_PBE Pd 04Jan2005                  
   VRHFIN =Pd : s1 d9                                                           
   LEXCH  = PE                                                                  
   EATOM  =   809.7530 eV,   59.5152 Ry                                         
                                                                                
   TITEL  = PAW_PBE Pd 04Jan2005                                                
   LULTRA =        F    use ultrasoft PP ?                                      
   IUNSCR =        1    unscreen: 0-lin 1-nonlin 2-no                           
   RPACOR =    2.000    partial core radius                                     
   POMASS =  106.420; ZVAL   =   10.000    mass and valenz                      
   RCORE  =    2.600    outmost cutoff radius                                   
   RWIGS  =    2.710; RWIGS  =    1.434    wigner-seitz radius (au A)           
   ENMAX  =  250.925; ENMIN  =  188.194 eV                                      
   ICORE  =        3    local potential                                         
   LCOR   =        T    correct aug charges                                     
   LPAW   =        T    paw PP                                                  
   EAUG   =  416.230                                                            
   DEXC   =    0.000                                                            
   RMAX   =    2.653    core radius for proj-oper                               
   RAUG   =    1.300    factor for augmentation sphere                          
   RDEP   =    2.734    radius for radial grids                                 
   RDEPT  =    2.103    core radius for aug-charge                              
                                                                                
   Atomic configuration                                                         
   12 entries                                                                   
     n  l   j            E        occ.                                          
     1  0  0.50    -24164.6631   2.0000                                         
     2  0  0.50     -3530.9218   2.0000                                         
     2  1  1.50     -3165.6822   6.0000                                         
     3  0  0.50      -639.4577   2.0000                                         
     3  1  1.50      -519.4532   6.0000                                         
     3  2  2.50      -328.9757  10.0000                                         
     4  0  0.50       -88.7014   2.0000                                         
     4  1  1.50       -54.4540   6.0000                                         
     4  2  2.50        -6.6878   9.0000                                         
     5  0  0.50        -4.3543   1.0000                                         
     5  1  0.50        -1.3606   0.0000                                         
     4  3  2.50        -1.3606   0.0000                                         
   Description                                                                  
     l       E           TYP  RCUT    TYP  RCUT                                 
     2     -6.6878251     23  2.400                                             
     2     -8.0484077     23  2.400                                             
     0     -4.3542939     23  2.400                                             
     0      4.3406793     23  2.400                                             
     1     -4.0817478     23  2.600                                             
     1     15.8380318     23  2.600                                             
     3     -4.0817478     23  2.400                                             
  local pseudopotential read in
  partial core-charges read in
  partial kinetic energy density read in
  atomic valenz-charges read in
  non local Contribution for L=           2  read in
    real space projection operators read in
  non local Contribution for L=           2  read in
    real space projection operators read in
  non local Contribution for L=           0  read in
    real space projection operators read in
  non local Contribution for L=           0  read in
    real space projection operators read in
  non local Contribution for L=           1  read in
    real space projection operators read in
  non local Contribution for L=           1  read in
    real space projection operators read in
    PAW grid and wavefunctions read in
 
   number of l-projection  operators is LMAX  =           6
   number of lm-projection operators is LMMAX =          18
 
 Optimization of the real space projectors (new method)

 maximal supplied QI-value         = 25.13
 optimisation between [QCUT,QGAM] = [ 10.05, 20.36] = [ 28.30,116.06] Ry 
 Optimized for a Real-space Cutoff    1.70 Angstroem

   l    n(q)    QCUT    max X(q) W(low)/X(q) W(high)/X(q)  e(spline) 
   0     10    10.053    79.467    0.61E-04    0.98E-04    0.61E-06
   0     10    10.053    66.151    0.60E-04    0.98E-04    0.61E-06
   1     10    10.053     8.350    0.17E-03    0.71E-03    0.45E-05
   1     10    10.053     5.531    0.18E-03    0.77E-03    0.49E-05
 Optimization of the real space projectors (new method)

 maximal supplied QI-value         = 24.76
 optimisation between [QCUT,QGAM] = [ 10.15, 20.30] = [ 28.85,115.39] Ry 
 Optimized for a Real-space Cutoff    1.51 Angstroem

   l    n(q)    QCUT    max X(q) W(low)/X(q) W(high)/X(q)  e(spline) 
   0      9    10.150    20.381    0.17E-03    0.18E-03    0.41E-06
   0      9    10.150    15.268    0.18E-03    0.20E-03    0.43E-06
   1      9    10.150     5.964    0.16E-03    0.20E-03    0.36E-06
   1      9    10.150     5.382    0.13E-03    0.16E-03    0.33E-06
 Optimization of the real space projectors (new method)

 maximal supplied QI-value         = 14.36
 optimisation between [QCUT,QGAM] = [ 10.20, 20.39] = [ 29.12,116.47] Ry 
 Optimized for a Real-space Cutoff    1.55 Angstroem

   l    n(q)    QCUT    max X(q) W(low)/X(q) W(high)/X(q)  e(spline) 
   2      9    10.197    59.108    0.12E-03    0.40E-04    0.11E-06
   2      9    10.197    58.101    0.12E-03    0.39E-04    0.12E-06
   0      9    10.197   102.235    0.41E-04    0.86E-05    0.83E-07
   0      9    10.197    58.388    0.37E-04    0.79E-05    0.78E-07
   1      9    10.197    22.191    0.25E-03    0.13E-03    0.84E-07
   1      9    10.197    15.590    0.21E-03    0.11E-03    0.74E-07
  PAW_PBE N 08Apr2002                   :
 energy of atom  1       EATOM= -264.5486
 kinetic energy error for atom=    0.0736 (will be added to EATOM!!)
  PAW_PBE O 08Apr2002                   :
 energy of atom  2       EATOM= -432.3788
 kinetic energy error for atom=    0.1156 (will be added to EATOM!!)
  PAW_PBE Pd 04Jan2005                  :
 energy of atom  3       EATOM= -809.7530
 kinetic energy error for atom=    0.0091 (will be added to EATOM!!)
 
 
 POSCAR: N O Pd                                  
  positions in direct lattice
  velocities in cartesian coordinates
 exchange correlation table for  LEXCH =        8
   RHO(1)=    0.500       N(1)  =     2000
   RHO(2)=  100.500       N(2)  =     4000
 


--------------------------------------------------------------------------------------------------------


 ion  position               nearest neighbor table
   1  0.401  0.347  0.627-  79 1.89  75 1.94  80 1.95
   2  0.376  0.014  0.651-  12 1.19  74 1.99  78 2.00
   3  0.230  0.511  0.670-  13 1.18  76 1.92
   4  0.739  0.369  0.651-  14 1.19  83 1.99  84 1.99
   5  0.655  0.092  0.644-  15 1.21  82 2.03  78 2.23  83 2.26
   6  0.653  0.648  0.644-  16 1.21  85 2.04  84 2.17  81 2.20
   7  0.996  0.381  0.649-  17 1.19  72 1.95  71 1.99
   8  0.092  0.097  0.644-  18 1.21  70 2.01  71 2.19  74 2.22
   9  0.114  0.753  0.651-  19 1.19  73 1.95  77 2.00
  10  0.861  0.872  0.641-  20 1.21  82 2.15  85 2.17  73 2.29  70 2.41
  11  0.391  0.762  0.652-  21 1.19  81 1.96  77 2.02
  12  0.378  0.047  0.689-   2 1.19
  13  0.313  0.510  0.695-   3 1.18
  14  0.707  0.366  0.688-   4 1.19
  15  0.659  0.087  0.684-   5 1.21
  16  0.658  0.653  0.685-   6 1.21
  17  0.003  0.388  0.688-   7 1.19
  18  0.084  0.088  0.684-   8 1.21
  19  0.105  0.771  0.691-   9 1.19
  20  0.858  0.875  0.681-  10 1.21
  21  0.396  0.746  0.692-  11 1.19
  22  0.125  0.125  0.402-  43 2.73  25 2.74  23 2.74  34 2.74  26 2.75  38 2.75  42 2.77  39 2.78

  23  0.125  0.375  0.402-  43 2.73  35 2.74  22 2.74  27 2.75  24 2.75  44 2.76  39 2.76  40 2.79

  24  0.125  0.625  0.402-  44 2.70  36 2.74  28 2.74  25 2.75  23 2.75  41 2.75  40 2.79  45 2.79

  25  0.125  0.875  0.402-  29 2.74  22 2.74  37 2.74  24 2.75  38 2.76  41 2.76  42 2.76  45 2.77

  26  0.375  0.125  0.402-  47 2.73  29 2.74  27 2.74  22 2.75  30 2.75  43 2.76  42 2.77  46 2.78

  27  0.375  0.375  0.402-  26 2.74  23 2.75  31 2.75  28 2.75  48 2.75  43 2.75  47 2.75  44 2.80

  28  0.375  0.625  0.402-  48 2.73  24 2.74  29 2.75  32 2.75  27 2.75  44 2.75  49 2.76  45 2.80

  29  0.375  0.875  0.402-  26 2.74  25 2.74  46 2.75  33 2.75  28 2.75  42 2.76  49 2.76  45 2.77

  30  0.625  0.125  0.402-  47 2.72  31 2.74  33 2.74  34 2.75  26 2.75  51 2.76  50 2.77  46 2.78

  31  0.625  0.375  0.402-  47 2.74  30 2.74  35 2.75  27 2.75  32 2.75  48 2.76  52 2.76  51 2.77

  32  0.625  0.625  0.402-  48 2.74  53 2.74  36 2.75  31 2.75  28 2.75  33 2.75  52 2.77  49 2.79

  33  0.625  0.875  0.402-  46 2.74  30 2.74  29 2.75  37 2.75  32 2.75  50 2.75  53 2.77  49 2.79

  34  0.875  0.125  0.402-  51 2.74  35 2.74  37 2.74  22 2.74  30 2.75  50 2.76  38 2.77  39 2.77

  35  0.875  0.375  0.402-  34 2.74  23 2.74  31 2.75  36 2.75  51 2.75  39 2.75  52 2.76  40 2.77

  36  0.875  0.625  0.402-  24 2.74  32 2.75  35 2.75  37 2.75  53 2.75  40 2.76  52 2.76  41 2.77

  37  0.875  0.875  0.402-  50 2.73  34 2.74  25 2.74  36 2.75  33 2.75  41 2.77  38 2.77  53 2.78

  38  0.002  0.001  0.468-  42 2.73  50 2.75  22 2.75  25 2.76  39 2.76  41 2.76  69 2.76  66 2.77
                            34 2.77  37 2.77  57 2.79  54 2.80
  39  1.000  0.251  0.468-  51 2.72  43 2.73  40 2.73  66 2.75  35 2.75  38 2.76  23 2.76  54 2.77
                            34 2.77  22 2.78  55 2.78  67 2.81
  40  0.998  0.500  0.469-  52 2.72  55 2.73  44 2.73  39 2.73  41 2.73  68 2.75  36 2.76  35 2.77
                            24 2.79  23 2.79  56 2.82  67 2.83
  41  0.001  0.749  0.468-  45 2.73  69 2.73  40 2.73  24 2.75  38 2.76  25 2.76  36 2.77  53 2.77
                            37 2.77  56 2.77  68 2.80  57 2.81
  42  0.251  0.999  0.468-  58 2.70  45 2.72  38 2.73  57 2.74  46 2.74  29 2.76  25 2.76  43 2.76
                            26 2.77  22 2.77  54 2.80  61 2.85
  43  0.248  0.251  0.467-  59 2.67  39 2.73  23 2.73  22 2.73  27 2.75  54 2.75  26 2.76  42 2.76
                            58 2.76  47 2.78  44 2.79  55 2.81
  44  0.246  0.505  0.467-  59 2.67  24 2.70  45 2.72  40 2.73  28 2.75  23 2.76  55 2.77  48 2.78
                            60 2.78  43 2.79  27 2.80  56 2.83
  45  0.250  0.752  0.469-  44 2.72  42 2.72  49 2.72  41 2.73  60 2.73  57 2.74  25 2.77  29 2.77
                            24 2.79  28 2.80  56 2.81  61 2.84
  46  0.500  0.997  0.468-  49 2.71  58 2.71  42 2.74  33 2.74  29 2.75  62 2.75  65 2.76  47 2.76
                            50 2.76  30 2.78  26 2.78  61 2.84
  47  0.501  0.248  0.467-  30 2.72  59 2.72  26 2.73  31 2.74  63 2.74  58 2.75  51 2.75  27 2.75
                            46 2.76  43 2.78  48 2.79  62 2.80
  48  0.499  0.502  0.467-  59 2.67  49 2.72  28 2.73  32 2.74  27 2.75  64 2.76  52 2.76  63 2.76
                            31 2.76  44 2.78  47 2.79  60 2.84
  49  0.498  0.750  0.468-  46 2.71  48 2.72  45 2.72  65 2.74  28 2.76  29 2.76  53 2.76  64 2.78
                            60 2.78  32 2.79  33 2.79  61 2.84
  50  0.751  0.998  0.467-  62 2.73  37 2.73  53 2.74  33 2.75  38 2.75  69 2.76  34 2.76  46 2.76
                            51 2.76  30 2.77  66 2.79  65 2.81
  51  0.752  0.249  0.468-  63 2.72  39 2.72  34 2.74  52 2.75  47 2.75  66 2.75  35 2.75  30 2.76
                            50 2.76  62 2.76  31 2.77  67 2.79
  52  0.750  0.499  0.468-  63 2.71  40 2.72  53 2.73  51 2.75  48 2.76  35 2.76  68 2.76  31 2.76
                            36 2.76  32 2.77  64 2.79  67 2.81
  53  0.749  0.748  0.468-  52 2.73  50 2.74  32 2.74  36 2.75  69 2.76  49 2.76  33 2.77  41 2.77
                            65 2.77  37 2.78  68 2.78  64 2.80
  54  0.126  0.129  0.534-  58 2.74  66 2.75  43 2.75  74 2.76  55 2.76  39 2.77  57 2.77  71 2.77
                            38 2.80  42 2.80  70 2.80  75 2.88
  55  0.123  0.380  0.534-  40 2.73  56 2.73  59 2.75  75 2.75  54 2.76  67 2.76  44 2.77  39 2.78
                            43 2.81  72 2.87  71 2.87  76 2.88
  56  0.121  0.629  0.536-  60 2.72  55 2.73  68 2.73  57 2.73  76 2.75  41 2.77  73 2.78  45 2.81
                            40 2.82  72 2.83  44 2.83  77 2.98
  57  0.129  0.877  0.534-  61 2.71  56 2.73  45 2.74  42 2.74  70 2.77  54 2.77  69 2.78  38 2.79
                            41 2.81  73 2.87  77 2.88  74 2.94
  58  0.375  0.122  0.531-  42 2.70  79 2.71  61 2.71  46 2.71  54 2.74  47 2.75  43 2.76  62 2.78
                            59 2.81  74 2.85  75 2.87  78 2.94
  59  0.372  0.378  0.528-  48 2.67  44 2.67  43 2.67  80 2.70  75 2.70  47 2.72  55 2.75  60 2.75
                            63 2.79  58 2.81  79 2.86  76 3.15
  60  0.369  0.628  0.535-  61 2.72  56 2.72  45 2.73  80 2.74  59 2.75  64 2.77  49 2.78  44 2.78
                            48 2.84  81 2.85  76 2.88  77 2.95
  61  0.376  0.876  0.538-  65 2.71  57 2.71  58 2.71  60 2.72  77 2.79  78 2.83  49 2.84  46 2.84
                            45 2.84  42 2.85  81 2.91  74 2.94
  62  0.629  0.120  0.533-  79 2.66  66 2.72  50 2.73  65 2.73  46 2.75  51 2.76  58 2.78  63 2.79
                            47 2.80  82 2.82  83 2.83  78 2.84
  63  0.626  0.374  0.531-  67 2.70  79 2.71  52 2.71  51 2.72  64 2.73  47 2.74  48 2.76  62 2.79
                            59 2.79  84 2.85  80 2.88  83 2.95
  64  0.621  0.622  0.534-  63 2.73  81 2.73  65 2.74  48 2.76  68 2.76  84 2.77  60 2.77  49 2.78
                            52 2.79  53 2.80  85 2.83  80 2.90
  65  0.622  0.872  0.534-  61 2.71  62 2.73  64 2.74  49 2.74  46 2.76  53 2.77  69 2.79  82 2.80
                            50 2.81  85 2.82  78 2.86  81 2.88
  66  0.876  0.127  0.533-  67 2.70  62 2.72  54 2.75  39 2.75  51 2.75  70 2.77  38 2.77  69 2.79
                            50 2.79  82 2.82  83 2.84  71 2.92
  67  0.871  0.372  0.536-  66 2.70  63 2.70  72 2.74  68 2.75  55 2.76  51 2.79  39 2.81  52 2.81
                            40 2.83  83 2.85  71 2.94  84 2.95
  68  0.873  0.623  0.534-  72 2.71  56 2.73  69 2.75  40 2.75  67 2.75  52 2.76  85 2.76  64 2.76
                            53 2.78  41 2.80  73 2.85  84 2.96
  69  0.877  0.873  0.533-  41 2.73  68 2.75  50 2.76  82 2.76  53 2.76  38 2.76  70 2.78  57 2.78
                            66 2.79  65 2.79  85 2.81  73 2.81
  70  0.998  0.999  0.599-   8 2.01  10 2.41  82 2.67  71 2.71  73 2.71  74 2.74  66 2.77  57 2.77
                            69 2.78  54 2.80
  71  0.013  0.245  0.605-   7 1.99   8 2.19  70 2.71  75 2.76  54 2.77  72 2.85  55 2.87  83 2.92
                            66 2.92  67 2.94
  72  0.985  0.503  0.602-   7 1.95  68 2.71  67 2.74  73 2.75  76 2.75  84 2.82  56 2.83  71 2.85
                            55 2.87
  73  0.996  0.753  0.603-   9 1.95  10 2.29  85 2.66  70 2.71  72 2.75  56 2.78  69 2.81  77 2.82
                            68 2.85  57 2.87
  74  0.246  0.022  0.605-   2 1.99   8 2.22  70 2.74  75 2.74  54 2.76  77 2.84  58 2.85  78 2.88
                            57 2.94  61 2.94
  75  0.262  0.270  0.598-   1 1.94  79 2.68  76 2.69  59 2.70  74 2.74  55 2.75  71 2.76  58 2.87
                            54 2.88  80 3.35
  76  0.235  0.513  0.606-   3 1.92  75 2.69  80 2.69  56 2.75  72 2.75  77 2.76  55 2.88  60 2.88
                            59 3.15
  77  0.252  0.763  0.608-   9 2.00  11 2.02  76 2.76  61 2.79  73 2.82  74 2.84  81 2.85  57 2.88
                            60 2.95  56 2.98
  78  0.507  0.003  0.604-   2 2.00   5 2.23  79 2.67  82 2.73  61 2.83  62 2.84  65 2.86  74 2.88
                            58 2.94  81 2.94
  79  0.505  0.244  0.594-   1 1.89  62 2.66  78 2.67  83 2.68  80 2.68  75 2.68  63 2.71  58 2.71
                            59 2.86
  80  0.478  0.487  0.599-   1 1.95  79 2.68  76 2.69  59 2.70  60 2.74  81 2.76  84 2.77  63 2.88
                            64 2.90  75 3.35
  81  0.509  0.735  0.604-  11 1.96   6 2.20  85 2.68  64 2.73  80 2.76  77 2.85  60 2.85  65 2.88
                            61 2.91  78 2.94
  82  0.755  0.993  0.600-   5 2.03  10 2.15  70 2.67  85 2.68  83 2.72  78 2.73  69 2.76  65 2.80
                            66 2.82  62 2.82
  83  0.747  0.240  0.604-   4 1.99   5 2.26  79 2.68  82 2.72  62 2.83  66 2.84  67 2.85  84 2.87
                            71 2.92  63 2.95
  84  0.729  0.501  0.605-   4 1.99   6 2.17  85 2.74  80 2.77  64 2.77  72 2.82  63 2.85  83 2.87
                            67 2.95  68 2.96
  85  0.753  0.749  0.601-   6 2.04  10 2.17  73 2.66  82 2.68  81 2.68  84 2.74  68 2.76  69 2.81
                            65 2.82  64 2.83
 
  LATTYP: Found a simple tetragonal cell.
 ALAT       =    10.9820000000
 C/A-ratio  =     2.7317428519
  
  Lattice vectors:
  
 A1 = (  10.9820000000,   0.0000000000,   0.0000000000)
 A2 = (   0.0000000000,  10.9820000000,   0.0000000000)
 A3 = (   0.0000000000,   0.0000000000,  30.0000000000)


Analysis of symmetry for initial positions (statically):
=====================================================================
 Subroutine PRICEL returns:
 Original cell was already a primitive cell.
 

 Routine SETGRP: Setting up the symmetry group for a 
 simple tetragonal supercell.


 Subroutine GETGRP returns: Found  1 space group operations
 (whereof  1 operations were pure point group operations)
 out of a pool of 16 trial point group operations.


The static configuration has the point symmetry C_1 .


Analysis of symmetry for dynamics (positions and initial velocities):
=====================================================================
 Subroutine PRICEL returns:
 Original cell was already a primitive cell.
 

 Routine SETGRP: Setting up the symmetry group for a 
 simple tetragonal supercell.


 Subroutine GETGRP returns: Found  1 space group operations
 (whereof  1 operations were pure point group operations)
 out of a pool of 16 trial point group operations.


The dynamic configuration has the point symmetry C_1 .


Analysis of constrained symmetry for selective dynamics:
=====================================================================
 Subroutine PRICEL returns:
 Original cell was already a primitive cell.
 

 Routine SETGRP: Setting up the symmetry group for a 
 simple tetragonal supercell.


 Subroutine GETGRP returns: Found  1 space group operations
 (whereof  1 operations were pure point group operations)
 out of a pool of 16 trial point group operations.


The constrained configuration has the point symmetry C_1 .


Analysis of structural, dynamic, and magnetic symmetry:
=====================================================================
 Subroutine PRICEL returns:
 Original cell was already a primitive cell.
 

 Routine SETGRP: Setting up the symmetry group for a 
 simple tetragonal supercell.


 Subroutine GETGRP returns: Found  1 space group operations
 (whereof  1 operations were pure point group operations)
 out of a pool of 16 trial point group operations.


The magnetic configuration has the point symmetry C_1 .


 Subroutine INISYM returns: Found  1 space group operations
 (whereof  1 operations are pure point group operations),
 and found     1 'primitive' translations

 
 
 KPOINTS: K-Point Grid                            

Automatic generation of k-mesh.
Space group operators:
 irot       det(A)        alpha          n_x          n_y          n_z        tau_x        tau_y        tau_z
    1     1.000000     0.000001     1.000000     0.000000     0.000000     0.000000     0.000000     0.000000
 
 Subroutine IBZKPT returns following result:
 ===========================================
 
 Found      8 irreducible k-points:
 
 Following reciprocal coordinates:
            Coordinates               Weight
  0.125000  0.125000  0.000000      2.000000
  0.375000  0.125000  0.000000      2.000000
 -0.375000  0.125000  0.000000      2.000000
 -0.125000  0.125000  0.000000      2.000000
  0.125000  0.375000  0.000000      2.000000
  0.375000  0.375000  0.000000      2.000000
 -0.375000  0.375000  0.000000      2.000000
 -0.125000  0.375000  0.000000      2.000000
 
 Following cartesian coordinates:
            Coordinates               Weight
  0.011382  0.011382  0.000000      2.000000
  0.034147  0.011382  0.000000      2.000000
 -0.034147  0.011382  0.000000      2.000000
 -0.011382  0.011382  0.000000      2.000000
  0.011382  0.034147  0.000000      2.000000
  0.034147  0.034147  0.000000      2.000000
 -0.034147  0.034147  0.000000      2.000000
 -0.011382  0.034147  0.000000      2.000000
 


--------------------------------------------------------------------------------------------------------




 Dimension of arrays:
   k-points           NKPTS =      8   k-points in BZ     NKDIM =      8   number of bands    NBANDS=    528
   number of dos      NEDOS =   1200   number of ions     NIONS =     85
   non local maximal  LDIM  =      6   non local SUM 2l+1 LMDIM =     18
   total plane-waves  NPLWV = ******
   max r-space proj   IRMAX =   5807   max aug-charges    IRDMAX=  13820
   dimension x,y,z NGX =    72 NGY =   72 NGZ =  196
   dimension x,y,z NGXF=   144 NGYF=  144 NGZF=  392
   support grid    NGXF=   144 NGYF=  144 NGZF=  392
   ions per type =              11  10  64
   NGX,Y,Z   is equivalent  to a cutoff of  10.90, 10.90, 10.86 a.u.
   NGXF,Y,Z  is equivalent  to a cutoff of  21.80, 21.80, 21.72 a.u.

 SYSTEM =  Pd_100_surface                          
 POSCAR =  N O Pd                                  

 Startparameter for this run:
   NWRITE =      2    write-flag & timer
   PREC   = accura    normal or accurate (medium, high low for compatibility)
   ISTART =      0    job   : 0-new  1-cont  2-samecut
   ICHARG =      2    charge: 1-file 2-atom 10-const
   ISPIN  =      2    spin polarized calculation?
   LNONCOLLINEAR =      F non collinear calculations
   LSORBIT =      F    spin-orbit coupling
   INIWAV =      1    electr: 0-lowe 1-rand  2-diag
   LASPH  =      F    aspherical Exc in radial PAW
   METAGGA=      F    non-selfconsistent MetaGGA calc.

 Electronic Relaxation 1
   ENCUT  =  400.0 eV  29.40 Ry    5.42 a.u.  17.91 17.91 48.92*2*pi/ulx,y,z
   ENINI  =  400.0     initial cutoff
   ENAUG  =  627.1 eV  augmentation charge cutoff
   NELM   =    100;   NELMIN=  2; NELMDL=  0     # of ELM steps 
   EDIFF  = 0.1E-04   stopping-criterion for ELM
   LREAL  =      T    real-space projection
   NLSPLINE    = F    spline interpolate recip. space projectors
   LCOMPAT=      F    compatible to vasp.4.4
   GGA_COMPAT  = T    GGA compatible to vasp.4.4-vasp.4.6
   LMAXPAW     = -100 max onsite density
   LMAXMIX     =    2 max onsite mixed and CHGCAR
   VOSKOWN=      0    Vosko Wilk Nusair interpolation
   ROPT   =   -0.00025  -0.00025  -0.00025
 Ionic relaxation
   EDIFFG = -.2E-01   stopping-criterion for IOM
   NSW    =    300    number of steps for IOM
   NBLOCK =      1;   KBLOCK =    300    inner block; outer block 
   IBRION =      2    ionic relax: 0-MD 1-quasi-New 2-CG
   NFREE  =      1    steps in history (QN), initial steepest desc. (CG)
   ISIF   =      2    stress and relaxation
   IWAVPR =     11    prediction:  0-non 1-charg 2-wave 3-comb
   ISYM   =      2    0-nonsym 1-usesym 2-fastsym
   LCORR  =      T    Harris-Foulkes like correction to forces

   POTIM  = 0.5000    time-step for ionic-motion
   TEIN   =    0.0    initial temperature
   TEBEG  =    0.0;   TEEND  =   0.0 temperature during run
   SMASS  =  -3.00    Nose mass-parameter (am)
   estimated Nose-frequenzy (Omega)   =  0.10E-29 period in steps =****** mass=  -0.276E-26a.u.
   SCALEE = 1.0000    scale energy and forces
   NPACO  =    256;   APACO  = 16.0  distance and # of slots for P.C.
   PSTRESS=    0.0 pullay stress

  Mass of Ions in am
   POMASS =  14.00 16.00106.42
  Ionic Valenz
   ZVAL   =   5.00  6.00 10.00
  Atomic Wigner-Seitz radii
   RWIGS  =  -1.00 -1.00 -1.00
  virtual crystal weights 
   VCA    =   1.00  1.00  1.00
   NELECT =     755.0000    total number of electrons
   NUPDOWN=      -1.0000    fix difference up-down

 DOS related values:
   EMIN   =  10.00;   EMAX   =-10.00  energy-range for DOS
   EFERMI =   0.00
   ISMEAR =     1;   SIGMA  =   0.20  broadening in eV -4-tet -1-fermi 0-gaus

 Electronic relaxation 2 (details)
   IALGO  =     68    algorithm
   LDIAG  =      T    sub-space diagonalisation (order eigenvalues)
   LSUBROT=      F    optimize rotation matrix (better conditioning)
   TURBO    =      0    0=normal 1=particle mesh
   IRESTART =      0    0=no restart 2=restart with 2 vectors
   NREBOOT  =      0    no. of reboots
   NMIN     =      0    reboot dimension
   EREF     =   0.00    reference energy to select bands
   IMIX   =      4    mixing-type and parameters
     AMIX     =   0.40;   BMIX     =  1.00
     AMIX_MAG =   1.60;   BMIX_MAG =  1.00
     AMIN     =   0.10
     WC   =   100.;   INIMIX=   1;  MIXPRE=   1;  MAXMIX= -45

 Intra band minimization:
   WEIMIN = 0.0010     energy-eigenvalue tresh-hold
   EBREAK =  0.47E-08  absolut break condition
   DEPER  =   0.30     relativ break condition  

   TIME   =   0.40     timestep for ELM

  volume/ion in A,a.u.               =      42.57       287.25
  Fermi-wavevector in a.u.,A,eV,Ry     =   0.971022  1.834966 12.828714  0.942884
  Thomas-Fermi vector in A             =   2.101205
 
 Write flags
   LWAVE        =      F    write WAVECAR
   LDOWNSAMPLE  =      F    k-point downsampling of WAVECAR
   LCHARG       =      F    write CHGCAR
   LVTOT        =      F    write LOCPOT, total local potential
   LVHAR        =      F    write LOCPOT, Hartree potential only
   LELF         =      F    write electronic localiz. function (ELF)
   LORBIT       =     11    0 simple, 1 ext, 2 COOP (PROOUT), +10 PAW based schemes


 Dipole corrections
   LMONO  =      F    monopole corrections only (constant potential shift)
   LDIPOL =      T    correct potential (dipole corrections)
   IDIPOL =      3    1-x, 2-y, 3-z, 4-all directions 
   EPSILON=  1.0000000 bulk dielectric constant

 Exchange correlation treatment:
   GGA     =    --    GGA type
   LEXCH   =     8    internal setting for exchange type
   VOSKOWN=      0    Vosko Wilk Nusair interpolation
   LHFCALC =     F    Hartree Fock is set to
   LHFONE  =     F    Hartree Fock one center treatment
   AEXX    =    0.0000 exact exchange contribution

 Linear response parameters
   LEPSILON=     F    determine dielectric tensor
   LRPA    =     F    only Hartree local field effects (RPA)
   LNABLA  =     F    use nabla operator in PAW spheres
   LVEL    =     F    velocity operator in full k-point grid
   LINTERFAST=   F  fast interpolation
   KINTER  =     0    interpolate to denser k-point grid
   CSHIFT  =0.1000    complex shift for real part using Kramers Kronig
   OMEGAMAX=  -1.0    maximum frequency
   DEG_THRESHOLD= 0.2000000E-02 threshold for treating states as degnerate
   RTIME   =   -0.100 relaxation time in fs
  (WPLASMAI=    0.000 imaginary part of plasma frequency in eV, 0.658/RTIME)
   DFIELD  = 0.0000000 0.0000000 0.0000000 field for delta impulse in time
 
 Orbital magnetization related:
   ORBITALMAG=     F  switch on orbital magnetization
   LCHIMAG   =     F  perturbation theory with respect to B field
   DQ        =  0.001000  dq finite difference perturbation B field
   LLRAUG    =     F  two centre corrections for induced B field



--------------------------------------------------------------------------------------------------------


 conjugate gradient relaxation of ions
   using selective dynamics as specified on POSCAR
 charge density and potential will be updated during run
 spin polarized calculation
 RMM-DIIS sequential band-by-band and
  variant of blocked Davidson during initial phase
 perform sub-space diagonalisation
    before iterative eigenvector-optimisation
 modified Broyden-mixing scheme, WC =      100.0
 initial mixing is a Kerker type mixing with AMIX =  0.4000 and BMIX =      1.0000
 Hartree-type preconditioning will be used
 using additional bands          150
 real space projection scheme for non local part
 use partial core corrections
 calculate Harris-corrections to forces 
   (improved forces if not selfconsistent)
 use gradient corrections 
 use of overlap-Matrix (Vanderbilt PP)
 Methfessel and Paxton  Order N= 1 SIGMA  =   0.20


--------------------------------------------------------------------------------------------------------


  energy-cutoff  :      400.00
  volume of cell :     3618.13
      direct lattice vectors                 reciprocal lattice vectors
    10.982000000  0.000000000  0.000000000     0.091058095  0.000000000  0.000000000
     0.000000000 10.982000000  0.000000000     0.000000000  0.091058095  0.000000000
     0.000000000  0.000000000 30.000000000     0.000000000  0.000000000  0.033333333

  length of vectors
    10.982000000 10.982000000 30.000000000     0.091058095  0.091058095  0.033333333


 
 k-points in units of 2pi/SCALE and weight: K-Point Grid                            
   0.01138226  0.01138226  0.00000000       0.125
   0.03414679  0.01138226  0.00000000       0.125
  -0.03414679  0.01138226  0.00000000       0.125
  -0.01138226  0.01138226  0.00000000       0.125
   0.01138226  0.03414679  0.00000000       0.125
   0.03414679  0.03414679  0.00000000       0.125
  -0.03414679  0.03414679  0.00000000       0.125
  -0.01138226  0.03414679  0.00000000       0.125
 
 k-points in reciprocal lattice and weights: K-Point Grid                            
   0.12500000  0.12500000  0.00000000       0.125
   0.37500000  0.12500000  0.00000000       0.125
  -0.37500000  0.12500000  0.00000000       0.125
  -0.12500000  0.12500000  0.00000000       0.125
   0.12500000  0.37500000  0.00000000       0.125
   0.37500000  0.37500000  0.00000000       0.125
  -0.37500000  0.37500000  0.00000000       0.125
  -0.12500000  0.37500000  0.00000000       0.125
 
 position of ions in fractional coordinates (direct lattice) 
   0.40091391  0.34702926  0.62691174
   0.37603215  0.01407244  0.65066520
   0.22988204  0.51100023  0.66979234
   0.73870258  0.36935590  0.65053057
   0.65482056  0.09156786  0.64365343
   0.65329575  0.64800032  0.64435959
   0.99563222  0.38058165  0.64861569
   0.09206531  0.09662025  0.64415788
   0.11437664  0.75349881  0.65143385
   0.86068816  0.87193670  0.64118144
   0.39105645  0.76245149  0.65228447
   0.37827939  0.04717408  0.68853740
   0.31273327  0.50951349  0.69464442
   0.70668081  0.36593642  0.68849861
   0.65856369  0.08717033  0.68377483
   0.65790502  0.65330951  0.68451360
   0.00257432  0.38834065  0.68824242
   0.08357488  0.08752311  0.68418549
   0.10547385  0.77050833  0.69056762
   0.85785179  0.87476620  0.68146562
   0.39608772  0.74633959  0.69161608
   0.12500574  0.12495957  0.40247191
   0.12496520  0.37490124  0.40242638
   0.12500751  0.62501351  0.40241794
   0.12504320  0.87505350  0.40246228
   0.37496342  0.12495556  0.40246076
   0.37496366  0.37486590  0.40240587
   0.37494589  0.62498209  0.40238176
   0.37494425  0.87505690  0.40244008
   0.62501158  0.12497619  0.40244072
   0.62504826  0.37484586  0.40239518
   0.62505222  0.62494022  0.40234017
   0.62501659  0.87507007  0.40238534
   0.87505518  0.12498139  0.40245066
   0.87506162  0.37488311  0.40241864
   0.87511610  0.62497174  0.40237954
   0.87511472  0.87506608  0.40240850
   0.00167196  0.00052217  0.46791832
   0.99959879  0.25148934  0.46808927
   0.99793075  0.50035502  0.46857494
   0.00112757  0.74934978  0.46798771
   0.25053974  0.99907133  0.46804286
   0.24775535  0.25059566  0.46708561
   0.24611813  0.50466648  0.46734188
   0.24968131  0.75184106  0.46890487
   0.50023679  0.99696895  0.46789244
   0.50125302  0.24794695  0.46665019
   0.49933357  0.50211742  0.46702144
   0.49756480  0.74988704  0.46841884
   0.75143862  0.99771803  0.46742759
   0.75172327  0.24894136  0.46760677
   0.75032434  0.49936119  0.46786563
   0.74902164  0.74797032  0.46775917
   0.12642886  0.12931086  0.53407351
   0.12263270  0.38043072  0.53369951
   0.12131323  0.62871562  0.53628459
   0.12931873  0.87726674  0.53434028
   0.37523954  0.12220206  0.53106167
   0.37214502  0.37824243  0.52765981
   0.36919282  0.62822032  0.53473902
   0.37598917  0.87577959  0.53790654
   0.62857250  0.12000362  0.53254600
   0.62626322  0.37400711  0.53098616
   0.62132426  0.62225663  0.53417828
   0.62247358  0.87156684  0.53365652
   0.87648113  0.12660153  0.53332600
   0.87143595  0.37192189  0.53600671
   0.87297554  0.62259452  0.53420367
   0.87658944  0.87267151  0.53253805
   0.99786444  0.99894756  0.59924400
   0.01292672  0.24459435  0.60498802
   0.98536120  0.50252517  0.60164954
   0.99586436  0.75253980  0.60292501
   0.24570345  0.02195480  0.60473631
   0.26247727  0.27029515  0.59800803
   0.23519632  0.51250724  0.60575122
   0.25193556  0.76332759  0.60804357
   0.50710303  0.00317088  0.60433297
   0.50514236  0.24443614  0.59359273
   0.47804913  0.48664987  0.59852074
   0.50938517  0.73533167  0.60430823
   0.75502904  0.99267202  0.59985521
   0.74706531  0.24020947  0.60404137
   0.72915598  0.50070163  0.60478535
   0.75330290  0.74862183  0.60071028
 
 position of ions in cartesian coordinates  (Angst):
   4.40283651  3.81107530 18.80735223
   4.12958509  0.15454350 19.51995606
   2.52456453  5.61180458 20.09377019
   8.11243173  4.05626650 19.51591708
   7.19123940  1.00559819 19.30960276
   7.17449395  7.11633952 19.33078765
  10.93403300  4.17954766 19.45847057
   1.01106124  1.06108355 19.32473635
   1.25608421  8.27492394 19.54301546
   9.45207734  9.57560883 19.23544317
   4.29458193  8.37324221 19.56853410
   4.15426425  0.51806573 20.65612213
   3.43443676  5.59547711 20.83933271
   7.76076865  4.01871374 20.65495815
   7.23234645  0.95730459 20.51324480
   7.22511289  7.17464507 20.53540814
   0.02827120  4.26475697 20.64727268
   0.91781929  0.96117876 20.52556463
   1.15831385  8.46172245 20.71702850
   9.42092841  9.60668246 20.44396868
   4.34983539  8.19630141 20.74848237
   1.37281301  1.37230596 12.07415726
   1.37236783  4.11716544 12.07279125
   1.37283249  6.86389837 12.07253809
   1.37322446  9.60983759 12.07386853
   4.11784828  1.37226195 12.07382282
   4.11785089  4.11677727 12.07217610
   4.11765574  6.86355327 12.07145274
   4.11763770  9.60987488 12.07320226
   6.86387714  1.37248855 12.07322159
   6.86428003  4.11655719 12.07185547
   6.86432347  6.86309347 12.07020511
   6.86393216  9.61001946 12.07156006
   9.60985599  1.37254568 12.07351983
   9.60992669  4.11696626 12.07255930
   9.61052504  6.86343965 12.07138617
   9.61050987  9.60997566 12.07225491
   0.01836142  0.00573443 14.03754952
  10.97759394  2.76185594 14.04267816
  10.95927547  5.49489883 14.05724825
   0.01238295  8.22935930 14.03963142
   2.75142738 10.97180140 14.04128582
   2.72084921  2.75204156 14.01256827
   2.70286935  5.54224730 14.02025648
   2.74200015  8.25671855 14.06714611
   5.49360048 10.94871305 14.03677309
   5.50476065  2.72295344 13.99950572
   5.48368123  5.51425354 14.01064317
   5.46425662  8.23525947 14.05256527
   8.25229896 10.95693941 14.02282781
   8.25542493  2.73387403 14.02820316
   8.24006191  5.48398463 14.03596879
   8.22575569  8.21421006 14.03277504
   1.38844179  1.42009185 16.02220522
   1.34675229  4.17789019 16.01098543
   1.33226189  6.90455495 16.08853764
   1.42017834  9.63414336 16.03020842
   4.12088059  1.34202302 15.93185025
   4.08689660  4.15385832 15.82979428
   4.05447555  6.89911551 16.04217046
   4.12911302  9.61781141 16.13719616
   6.90298314  1.31787981 15.97637996
   6.87762265  4.10734613 15.92958484
   6.82338302  6.83362226 16.02534849
   6.83600486  9.57154709 16.00969547
   9.62551581  1.39033802 15.99978012
   9.57010961  4.08444619 16.08020115
   9.58701735  6.83733299 16.02610998
   9.62670523  9.58367854 15.97614144
  10.95854727 10.97044205 17.97732009
   0.14196129  2.68613520 18.14964060
  10.82123666  5.51873137 18.04948625
  10.93658245  8.26439208 18.08775033
   2.69831533  0.24110765 18.14208944
   2.88252533  2.96838139 17.94024087
   2.58292596  5.62835450 18.17253661
   2.76675628  8.38286358 18.24130712
   5.56900552  0.03482259 18.12998898
   5.54747336  2.68439766 17.80778185
   5.24993559  5.34438882 17.95562213
   5.59406794  8.07541243 18.12924689
   8.29172893 10.90152416 17.99565624
   8.20427120  2.63798035 18.12124119
   8.00759096  5.49870530 18.14356044
   8.27277250  8.22136496 18.02130847
 


--------------------------------------------------------------------------------------------------------


 k-point  1 :   0.1250 0.1250 0.0000  plane waves:   65671
 k-point  2 :   0.3750 0.1250 0.0000  plane waves:   65719
 k-point  3 :  -0.3750 0.1250 0.0000  plane waves:   65719
 k-point  4 :  -0.1250 0.1250 0.0000  plane waves:   65671
 k-point  5 :   0.1250 0.3750 0.0000  plane waves:   65719
 k-point  6 :   0.3750 0.3750 0.0000  plane waves:   65776
 k-point  7 :  -0.3750 0.3750 0.0000  plane waves:   65776
 k-point  8 :  -0.1250 0.3750 0.0000  plane waves:   65719

 maximum and minimum number of plane-waves per node :     65776    65671

 maximum number of plane-waves:     65776
 maximum index in each direction: 
   IXMAX=   18   IYMAX=   17   IZMAX=   48
   IXMIN=  -18   IYMIN=  -18   IZMIN=  -48


 serial   3D FFT for wavefunctions
 parallel 3D FFT for charge:
    minimum data exchange during FFTs selected (reduces bandwidth)


 total amount of memory used by VASP MPI-rank0   386847. kBytes
=======================================================================

   base      :      30000. kBytes
   nonlr-proj:      58839. kBytes
   fftplans  :       9850. kBytes
   grid      :      96415. kBytes
   one-center:       2643. kBytes
   wavefun   :     189100. kBytes
 
     INWAV:  cpu time    0.0001: real time    0.0003
 Broyden mixing: mesh for mixing (old mesh)
   NGX = 35   NGY = 35   NGZ = 97
  (NGX  =144   NGY  =144   NGZ  =392)
  gives a total of 118825 points

 initial charge density was supplied:
 charge density of overlapping atoms calculated
 number of electron     755.0000000 magnetization      85.0000000
 keeping initial charge density in first step


--------------------------------------------------------------------------------------------------------


 Maximum index for non-local projection operator         5598
 Maximum index for augmentation-charges          679 (set IRDMAX)


--------------------------------------------------------------------------------------------------------


 First call to EWALD:  gamma=   0.115
 Maximum number of real-space cells 4x 4x 2
 Maximum number of reciprocal cells 2x 2x 5

    FEWALD:  cpu time    0.0474: real time    0.0430


--------------------------------------- Iteration      1(   1)  ---------------------------------------


    POTLOK:  cpu time    0.5706: real time    3.5042
    SETDIJ:  cpu time    0.2489: real time    3.9362
     EDDAV:  cpu time  211.0447: real time  110.3391
       DOS:  cpu time    0.4021: real time    1.2565
    --------------------------------------------
      LOOP:  cpu time  212.2663: real time  119.0360

 eigenvalue-minimisations  : 16944
 total energy-change (2. order) : 0.4680582E+04  (-0.2923131E+05)
 number of electron     755.0000000 magnetization      85.0000000
 augmentation part      755.0000000 magnetization      85.0000000

 DIPCOR: dipole corrections for dipol
 direction  3 min pos     1,
 dipolmoment           0.000000      0.000000     -0.000561 electrons x Angstroem
 Tr[quadrupol]    -15266.863039

 energy correction for charged system         0.000000 eV
 dipol+quadrupol energy correction           -0.000000 eV
 added-field ion interaction          0.017120 eV  (added to PSCEN)


 Free energy of the ion-electron system (eV)
  ---------------------------------------------------
  alpha Z        PSCENC =       968.22009792
  Ewald energy   TEWEN  =    442377.92825593
  -Hartree energ DENC   =   -501551.14844919
  -exchange      EXHF   =         0.00000000
  -V(xc)+E(xc)   XCENC  =     -1379.53632738
  PAW double counting   =     57342.28654816   -53391.45729325
  entropy T*S    EENTRO =        -0.00499396
  eigenvalues    EBANDS =      1258.82762160
  atomic energy  EATOM  =     59055.46611198
  Solvation  Ediel_sol  =         0.00000000
  ---------------------------------------------------
  free energy    TOTEN  =      4680.58157182 eV

  energy without entropy =     4680.58656578  energy(sigma->0) =     4680.58323647


--------------------------------------------------------------------------------------------------------




--------------------------------------- Iteration      1(   2)  ---------------------------------------


     EDDAV:  cpu time  236.8746: real time  118.5901
       DOS:  cpu time    0.0074: real time    0.0037
    --------------------------------------------
      LOOP:  cpu time  236.8821: real time  118.5938

 eigenvalue-minimisations  : 19488
 total energy-change (2. order) :-0.4803082E+04  (-0.4465444E+04)
 number of electron     755.0000000 magnetization      85.0000000
 augmentation part      755.0000000 magnetization      85.0000000

 DIPCOR: dipole corrections for dipol
 direction  3 min pos     1,
 dipolmoment           0.000000      0.000000     -0.000561 electrons x Angstroem
 Tr[quadrupol]    -15266.863039

 energy correction for charged system         0.000000 eV
 dipol+quadrupol energy correction           -0.000000 eV
 added-field ion interaction          0.017120 eV  (added to PSCEN)


 Free energy of the ion-electron system (eV)
  ---------------------------------------------------
  alpha Z        PSCENC =       968.22009792
  Ewald energy   TEWEN  =    442377.92825593
  -Hartree energ DENC   =   -501551.14844919
  -exchange      EXHF   =         0.00000000
  -V(xc)+E(xc)   XCENC  =     -1379.53632738
  PAW double counting   =     57342.28654816   -53391.45729325
  entropy T*S    EENTRO =         0.00217552
  eigenvalues    EBANDS =     -3544.26121395
  atomic energy  EATOM  =     59055.46611198
  Solvation  Ediel_sol  =         0.00000000
  ---------------------------------------------------
  free energy    TOTEN  =      -122.50009425 eV

  energy without entropy =     -122.50226977  energy(sigma->0) =     -122.50081942


--------------------------------------------------------------------------------------------------------




--------------------------------------- Iteration      1(   3)  ---------------------------------------


     EDDAV:  cpu time  243.1665: real time  121.7570
       DOS:  cpu time    0.0126: real time    0.0063
    --------------------------------------------
      LOOP:  cpu time  243.1791: real time  121.7633

 eigenvalue-minimisations  : 19920
 total energy-change (2. order) :-0.3423122E+03  (-0.3211409E+03)
 number of electron     755.0000000 magnetization      85.0000000
 augmentation part      755.0000000 magnetization      85.0000000

 DIPCOR: dipole corrections for dipol
 direction  3 min pos     1,
 dipolmoment           0.000000      0.000000     -0.000561 electrons x Angstroem
 Tr[quadrupol]    -15266.863039

 energy correction for charged system         0.000000 eV
 dipol+quadrupol energy correction           -0.000000 eV
 added-field ion interaction          0.017120 eV  (added to PSCEN)


 Free energy of the ion-electron system (eV)
  ---------------------------------------------------
  alpha Z        PSCENC =       968.22009792
  Ewald energy   TEWEN  =    442377.92825593
  -Hartree energ DENC   =   -501551.14844919
  -exchange      EXHF   =         0.00000000
  -V(xc)+E(xc)   XCENC  =     -1379.53632738
  PAW double counting   =     57342.28654816   -53391.45729325
  entropy T*S    EENTRO =        -0.05647898
  eigenvalues    EBANDS =     -3886.51477483
  atomic energy  EATOM  =     59055.46611198
  Solvation  Ediel_sol  =         0.00000000
  ---------------------------------------------------
  free energy    TOTEN  =      -464.81230963 eV

  energy without entropy =     -464.75583065  energy(sigma->0) =     -464.79348330


--------------------------------------------------------------------------------------------------------




--------------------------------------- Iteration      1(   4)  ---------------------------------------


     EDDAV:  cpu time  229.3662: real time  114.7979
       DOS:  cpu time    0.0074: real time    0.0037
    --------------------------------------------
      LOOP:  cpu time  229.3736: real time  114.8016

 eigenvalue-minimisations  : 18672
 total energy-change (2. order) :-0.8467204E+01  (-0.8365095E+01)
 number of electron     755.0000000 magnetization      85.0000000
 augmentation part      755.0000000 magnetization      85.0000000

 DIPCOR: dipole corrections for dipol
 direction  3 min pos     1,
 dipolmoment           0.000000      0.000000     -0.000561 electrons x Angstroem
 Tr[quadrupol]    -15266.863039

 energy correction for charged system         0.000000 eV
 dipol+quadrupol energy correction           -0.000000 eV
 added-field ion interaction          0.017120 eV  (added to PSCEN)


 Free energy of the ion-electron system (eV)
  ---------------------------------------------------
  alpha Z        PSCENC =       968.22009792
  Ewald energy   TEWEN  =    442377.92825593
  -Hartree energ DENC   =   -501551.14844919
  -exchange      EXHF   =         0.00000000
  -V(xc)+E(xc)   XCENC  =     -1379.53632738
  PAW double counting   =     57342.28654816   -53391.45729325
  entropy T*S    EENTRO =        -0.04713280
  eigenvalues    EBANDS =     -3894.99132492
  atomic energy  EATOM  =     59055.46611198
  Solvation  Ediel_sol  =         0.00000000
  ---------------------------------------------------
  free energy    TOTEN  =      -473.27951354 eV

  energy without entropy =     -473.23238074  energy(sigma->0) =     -473.26380261


--------------------------------------------------------------------------------------------------------




--------------------------------------- Iteration      1(   5)  ---------------------------------------


     EDDAV:  cpu time  263.4311: real time  131.8582
       DOS:  cpu time    0.0076: real time    0.0038
    CHARGE:  cpu time    7.3067: real time    7.7877
    MIXING:  cpu time    1.0901: real time    1.9915
    --------------------------------------------
      LOOP:  cpu time  271.8355: real time  141.6412

 eigenvalue-minimisations  : 21936
 total energy-change (2. order) :-0.2419176E+00  (-0.2418625E+00)
 number of electron     754.9999858 magnetization      81.2633494
 augmentation part      265.0426451 magnetization      66.8038813

 DIPCOR: dipole corrections for dipol
 direction  3 min pos     1,
 dipolmoment           0.000000      0.000000     -0.000561 electrons x Angstroem
 Tr[quadrupol]    -15266.863039

 energy correction for charged system         0.000000 eV
 dipol+quadrupol energy correction           -0.000000 eV
 added-field ion interaction          0.017120 eV  (added to PSCEN)


 Broyden mixing:
  rms(total) = 0.73610E+01    rms(broyden)= 0.73583E+01
  rms(prec ) = 0.74659E+01
  weight for this iteration     100.00

 Free energy of the ion-electron system (eV)
  ---------------------------------------------------
  alpha Z        PSCENC =       968.22009792
  Ewald energy   TEWEN  =    442377.92825593
  -Hartree energ DENC   =   -501551.14844919
  -exchange      EXHF   =         0.00000000
  -V(xc)+E(xc)   XCENC  =     -1379.53632738
  PAW double counting   =     57342.28654816   -53391.45729325
  entropy T*S    EENTRO =        -0.04701140
  eigenvalues    EBANDS =     -3895.23336394
  atomic energy  EATOM  =     59055.46611198
  Solvation  Ediel_sol  =         0.00000000
  ---------------------------------------------------
  free energy    TOTEN  =      -473.52143115 eV

  energy without entropy =     -473.47441975  energy(sigma->0) =     -473.50576068


--------------------------------------------------------------------------------------------------------




--------------------------------------- Iteration      1(   6)  ---------------------------------------


    POTLOK:  cpu time    0.3539: real time    0.3543
    SETDIJ:  cpu time    0.0475: real time    0.0289
    EDDIAG:  cpu time   40.1379: real time   21.2589
  RMM-DIIS:  cpu time  125.9177: real time   64.2749
    ORTHCH:  cpu time    6.5543: real time    3.2809
       DOS:  cpu time    0.0074: real time    0.0037
    CHARGE:  cpu time    7.0354: real time    6.6954
    MIXING:  cpu time    0.0767: real time    0.0669
    --------------------------------------------
      LOOP:  cpu time  180.1309: real time   95.9639

 eigenvalue-minimisations  : 16896
 total energy-change (2. order) : 0.4284155E+02  (-0.1789077E+02)
 number of electron     754.9999870 magnetization      79.0734089
 augmentation part      281.5902804 magnetization      64.1297572

 DIPCOR: dipole corrections for dipol
 direction  3 min pos     1,
 dipolmoment           0.000000      0.000000      0.392625 electrons x Angstroem
 Tr[quadrupol]    -15262.603735

 energy correction for charged system         0.000000 eV
 dipol+quadrupol energy correction           -0.003855 eV
 added-field ion interaction        -11.978488 eV  (added to PSCEN)


 Broyden mixing:
  rms(total) = 0.66680E+01    rms(broyden)= 0.66636E+01
  rms(prec ) = 0.69974E+01
  weight for this iteration     100.00

 eigenvalues of (default mixing * dielectric matrix)
  average eigenvalue GAMMA=   0.6458
  0.6458

 Free energy of the ion-electron system (eV)
  ---------------------------------------------------
  alpha Z        PSCENC =       956.22063525
  Ewald energy   TEWEN  =    442377.92825593
  -Hartree energ DENC   =   -501052.03104374
  -exchange      EXHF   =         0.00000000
  -V(xc)+E(xc)   XCENC  =     -1349.03359257
  PAW double counting   =     62606.34303159   -58742.95821352
  entropy T*S    EENTRO =         0.06810565
  eigenvalues    EBANDS =     -4282.68316844
  atomic energy  EATOM  =     59055.46611198
  Solvation  Ediel_sol  =         0.00000000
  ---------------------------------------------------
  free energy    TOTEN  =      -430.67987786 eV

  energy without entropy =     -430.74798351  energy(sigma->0) =     -430.70257975


--------------------------------------------------------------------------------------------------------




--------------------------------------- Iteration      1(   7)  ---------------------------------------


    POTLOK:  cpu time    0.4746: real time    0.3778
    SETDIJ:  cpu time    0.0462: real time    0.0282
    EDDIAG:  cpu time   40.2481: real time   20.1422
  RMM-DIIS:  cpu time  125.6482: real time   63.9675
    ORTHCH:  cpu time    6.5447: real time    3.2754
       DOS:  cpu time    0.0073: real time    0.0036
    CHARGE:  cpu time    6.8815: real time    6.5300
    MIXING:  cpu time    0.0193: real time    0.0096
    --------------------------------------------
      LOOP:  cpu time  179.8698: real time   94.3344

 eigenvalue-minimisations  : 16917
 total energy-change (2. order) : 0.1446090E+02  (-0.5131737E+01)
 number of electron     754.9999821 magnetization      75.2759549
 augmentation part      274.4921297 magnetization      59.9280340

 DIPCOR: dipole corrections for dipol
 direction  3 min pos     1,
 dipolmoment           0.000000      0.000000      0.170985 electrons x Angstroem
 Tr[quadrupol]    -15281.618160

 energy correction for charged system         0.000000 eV
 dipol+quadrupol energy correction           -0.000731 eV
 added-field ion interaction         -5.216545 eV  (added to PSCEN)


 Broyden mixing:
  rms(total) = 0.46697E+01    rms(broyden)= 0.46649E+01
  rms(prec ) = 0.52391E+01
  weight for this iteration     100.00

 eigenvalues of (default mixing * dielectric matrix)
  average eigenvalue GAMMA=   0.7494
  1.1471  0.3518

 Free energy of the ion-electron system (eV)
  ---------------------------------------------------
  alpha Z        PSCENC =       962.98570152
  Ewald energy   TEWEN  =    442377.92825593
  -Hartree energ DENC   =   -501732.66054520
  -exchange      EXHF   =         0.00000000
  -V(xc)+E(xc)   XCENC  =     -1354.75597008
  PAW double counting   =     64873.13660923   -61022.76025191
  entropy T*S    EENTRO =        -0.01622162
  eigenvalues    EBANDS =     -3575.54266539
  atomic energy  EATOM  =     59055.46611198
  Solvation  Ediel_sol  =         0.00000000
  ---------------------------------------------------
  free energy    TOTEN  =      -416.21897554 eV

  energy without entropy =     -416.20275392  energy(sigma->0) =     -416.21356833


--------------------------------------------------------------------------------------------------------




--------------------------------------- Iteration      1(   8)  ---------------------------------------


    POTLOK:  cpu time    0.5540: real time    0.3997
    SETDIJ:  cpu time    0.0464: real time    0.0283
    EDDIAG:  cpu time   39.7972: real time   19.9181
  RMM-DIIS:  cpu time  125.9796: real time   64.1550
    ORTHCH:  cpu time    6.5508: real time    3.2843
       DOS:  cpu time    0.0075: real time    0.0037
    CHARGE:  cpu time    6.8933: real time    6.5480
    MIXING:  cpu time    0.0196: real time    0.0098
    --------------------------------------------
      LOOP:  cpu time  179.8484: real time   94.3469

 eigenvalue-minimisations  : 16896
 total energy-change (2. order) :-0.1394209E+03  (-0.8465547E+01)
 number of electron     754.9999893 magnetization      73.3815952
 augmentation part      266.5518628 magnetization      58.5632334

 DIPCOR: dipole corrections for dipol
 direction  3 min pos     1,
 dipolmoment           0.000000      0.000000     -3.188096 electrons x Angstroem
 Tr[quadrupol]    -15278.756387

 energy correction for charged system         0.000000 eV
 dipol+quadrupol energy correction           -0.254162 eV
 added-field ion interaction         97.264784 eV  (added to PSCEN)


 Broyden mixing:
  rms(total) = 0.11156E+02    rms(broyden)= 0.11151E+02
  rms(prec ) = 0.15217E+02
  weight for this iteration     100.00

 eigenvalues of (default mixing * dielectric matrix)
  average eigenvalue GAMMA=   0.6490
  1.3997  0.4103  0.1369

 Free energy of the ion-electron system (eV)
  ---------------------------------------------------
  alpha Z        PSCENC =      1065.21360031
  Ewald energy   TEWEN  =    442377.92825593
  -Hartree energ DENC   =   -501433.40279857
  -exchange      EXHF   =         0.00000000
  -V(xc)+E(xc)   XCENC  =     -1346.01859469
  PAW double counting   =     67792.82280166   -63971.96063380
  entropy T*S    EENTRO =        -0.06045806
  eigenvalues    EBANDS =     -4095.62818502
  atomic energy  EATOM  =     59055.46611198
  Solvation  Ediel_sol  =         0.00000000
  ---------------------------------------------------
  free energy    TOTEN  =      -555.63990026 eV

  energy without entropy =     -555.57944220  energy(sigma->0) =     -555.61974757


--------------------------------------------------------------------------------------------------------




--------------------------------------- Iteration      1(   9)  ---------------------------------------


    POTLOK:  cpu time    0.5477: real time    0.3938
    SETDIJ:  cpu time    0.0458: real time    0.0280
    EDDIAG:  cpu time   40.0151: real time   20.0218
  RMM-DIIS:  cpu time  125.6771: real time   63.8338
    ORTHCH:  cpu time    6.5509: real time    3.2789
       DOS:  cpu time    0.0075: real time    0.0038
    CHARGE:  cpu time    6.9224: real time    6.5720
    MIXING:  cpu time    0.0227: real time    0.0114
    --------------------------------------------
      LOOP:  cpu time  179.7893: real time   94.1434

 eigenvalue-minimisations  : 16898
 total energy-change (2. order) : 0.1237115E+03  (-0.4434436E+01)
 number of electron     754.9999847 magnetization      70.4029105
 augmentation part      281.8738736 magnetization      57.4949771

 DIPCOR: dipole corrections for dipol
 direction  3 min pos     1,
 dipolmoment           0.000000      0.000000      1.677355 electrons x Angstroem
 Tr[quadrupol]    -15272.757600

 energy correction for charged system         0.000000 eV
 dipol+quadrupol energy correction           -0.070355 eV
 added-field ion interaction        -51.173983 eV  (added to PSCEN)


 Broyden mixing:
  rms(total) = 0.54719E+01    rms(broyden)= 0.54605E+01
  rms(prec ) = 0.66419E+01
  weight for this iteration     100.00

 eigenvalues of (default mixing * dielectric matrix)
  average eigenvalue GAMMA=   0.6326
  1.6699  0.4599  0.3066  0.0941

 Free energy of the ion-electron system (eV)
  ---------------------------------------------------
  alpha Z        PSCENC =       916.95863896
  Ewald energy   TEWEN  =    442377.92825593
  -Hartree energ DENC   =   -501494.24508498
  -exchange      EXHF   =         0.00000000
  -V(xc)+E(xc)   XCENC  =     -1336.87871683
  PAW double counting   =     69032.98573948   -65231.61130376
  entropy T*S    EENTRO =         0.02127068
  eigenvalues    EBANDS =     -3752.55330957
  atomic energy  EATOM  =     59055.46611198
  Solvation  Ediel_sol  =         0.00000000
  ---------------------------------------------------
  free energy    TOTEN  =      -431.92839810 eV

  energy without entropy =     -431.94966878  energy(sigma->0) =     -431.93548833


--------------------------------------------------------------------------------------------------------




--------------------------------------- Iteration      1(  10)  ---------------------------------------


    POTLOK:  cpu time    0.5530: real time    0.4019
    SETDIJ:  cpu time    0.0460: real time    0.0281
    EDDIAG:  cpu time   40.1795: real time   20.1060
  RMM-DIIS:  cpu time  126.4141: real time   64.2039
    ORTHCH:  cpu time    6.6069: real time    3.3107
       DOS:  cpu time    0.0083: real time    0.0042
    CHARGE:  cpu time    6.9371: real time    6.5921
    MIXING:  cpu time    0.0241: real time    0.0121
    --------------------------------------------
      LOOP:  cpu time  180.7692: real time   94.6588

 eigenvalue-minimisations  : 16899
 total energy-change (2. order) : 0.3919881E+02  (-0.2305521E+01)
 number of electron     754.9999848 magnetization      69.0789086
 augmentation part      279.5867004 magnetization      53.2685472

 DIPCOR: dipole corrections for dipol
 direction  3 min pos     1,
 dipolmoment           0.000000      0.000000      0.088631 electrons x Angstroem
 Tr[quadrupol]    -15281.738585

 energy correction for charged system         0.000000 eV
 dipol+quadrupol energy correction           -0.000196 eV
 added-field ion interaction         -2.704019 eV  (added to PSCEN)


 Broyden mixing:
  rms(total) = 0.33962E+01    rms(broyden)= 0.33956E+01
  rms(prec ) = 0.36373E+01
  weight for this iteration     100.00

 eigenvalues of (default mixing * dielectric matrix)
  average eigenvalue GAMMA=   0.6182
  1.8060  0.5702  0.3105  0.3105  0.0937

 Free energy of the ion-electron system (eV)
  ---------------------------------------------------
  alpha Z        PSCENC =       965.49876252
  Ewald energy   TEWEN  =    442377.92825593
  -Hartree energ DENC   =   -501734.39357183
  -exchange      EXHF   =         0.00000000
  -V(xc)+E(xc)   XCENC  =     -1338.88187182
  PAW double counting   =     70689.05691968   -66902.00089463
  entropy T*S    EENTRO =        -0.11622218
  eigenvalues    EBANDS =     -3505.28707822
  atomic energy  EATOM  =     59055.46611198
  Solvation  Ediel_sol  =         0.00000000
  ---------------------------------------------------
  free energy    TOTEN  =      -392.72958856 eV

  energy without entropy =     -392.61336638  energy(sigma->0) =     -392.69084783


--------------------------------------------------------------------------------------------------------




--------------------------------------- Iteration      1(  11)  ---------------------------------------


    POTLOK:  cpu time    0.5514: real time    0.4002
    SETDIJ:  cpu time    0.0459: real time    0.0280
    EDDIAG:  cpu time   40.4848: real time   20.2558
  RMM-DIIS:  cpu time  126.0017: real time   64.1959
    ORTHCH:  cpu time    6.5383: real time    3.2721
       DOS:  cpu time    0.0074: real time    0.0037
    CHARGE:  cpu time    6.7933: real time    6.4470
    MIXING:  cpu time    0.0231: real time    0.0115
    --------------------------------------------
      LOOP:  cpu time  180.4458: real time   94.6143

 eigenvalue-minimisations  : 16907
 total energy-change (2. order) : 0.3150850E+01  (-0.1616131E+01)
 number of electron     754.9999860 magnetization      66.3820573
 augmentation part      281.8587337 magnetization      53.8547369

 DIPCOR: dipole corrections for dipol
 direction  3 min pos     1,
 dipolmoment           0.000000      0.000000      0.494473 electrons x Angstroem
 Tr[quadrupol]    -15279.992325

 energy correction for charged system         0.000000 eV
 dipol+quadrupol energy correction           -0.006114 eV
 added-field ion interaction        -15.085752 eV  (added to PSCEN)


 Broyden mixing:
  rms(total) = 0.26173E+01    rms(broyden)= 0.26168E+01
  rms(prec ) = 0.31132E+01
  weight for this iteration     100.00

 eigenvalues of (default mixing * dielectric matrix)
  average eigenvalue GAMMA=   0.6293
  1.9313  0.7547  0.3844  0.3844  0.2287  0.0920

 Free energy of the ion-electron system (eV)
  ---------------------------------------------------
  alpha Z        PSCENC =       953.11111141
  Ewald energy   TEWEN  =    442377.92825593
  -Hartree energ DENC   =   -501694.48677156
  -exchange      EXHF   =         0.00000000
  -V(xc)+E(xc)   XCENC  =     -1339.79705126
  PAW double counting   =     70977.95811802   -67191.74323087
  entropy T*S    EENTRO =         0.06462704
  eigenvalues    EBANDS =     -3528.07990897
  atomic energy  EATOM  =     59055.46611198
  Solvation  Ediel_sol  =         0.00000000
  ---------------------------------------------------
  free energy    TOTEN  =      -389.57873828 eV

  energy without entropy =     -389.64336532  energy(sigma->0) =     -389.60028063


--------------------------------------------------------------------------------------------------------




--------------------------------------- Iteration      1(  12)  ---------------------------------------


    POTLOK:  cpu time    0.5281: real time    0.4171
    SETDIJ:  cpu time    0.0458: real time    0.0279
    EDDIAG:  cpu time   40.1789: real time   20.1042
  RMM-DIIS:  cpu time  126.5923: real time   64.5795
    ORTHCH:  cpu time    6.5322: real time    3.2739
       DOS:  cpu time    0.0079: real time    0.0040
    CHARGE:  cpu time    6.8678: real time    6.5158
    MIXING:  cpu time    0.0237: real time    0.0119
    --------------------------------------------
      LOOP:  cpu time  180.7768: real time   94.9343

 eigenvalue-minimisations  : 16911
 total energy-change (2. order) : 0.2069476E+01  (-0.2973856E+00)
 number of electron     754.9999846 magnetization      63.8777828
 augmentation part      278.7037575 magnetization      50.1690661

 DIPCOR: dipole corrections for dipol
 direction  3 min pos     1,
 dipolmoment           0.000000      0.000000      0.382311 electrons x Angstroem
 Tr[quadrupol]    -15284.698012

 energy correction for charged system         0.000000 eV
 dipol+quadrupol energy correction           -0.003655 eV
 added-field ion interaction        -11.663825 eV  (added to PSCEN)


 Broyden mixing:
  rms(total) = 0.20405E+01    rms(broyden)= 0.20400E+01
  rms(prec ) = 0.24789E+01
  weight for this iteration     100.00

 eigenvalues of (default mixing * dielectric matrix)
  average eigenvalue GAMMA=   0.6260
  1.9594  0.6691  0.6691  0.3755  0.3755  0.2408  0.0923

 Free energy of the ion-electron system (eV)
  ---------------------------------------------------
  alpha Z        PSCENC =       956.53549775
  Ewald energy   TEWEN  =    442377.92825593
  -Hartree energ DENC   =   -501900.96199962
  -exchange      EXHF   =         0.00000000
  -V(xc)+E(xc)   XCENC  =     -1340.65259208
  PAW double counting   =     71321.25298997   -67530.28136494
  entropy T*S    EENTRO =        -0.02059057
  eigenvalues    EBANDS =     -3326.77557063
  atomic energy  EATOM  =     59055.46611198
  Solvation  Ediel_sol  =         0.00000000
  ---------------------------------------------------
  free energy    TOTEN  =      -387.50926221 eV

  energy without entropy =     -387.48867164  energy(sigma->0) =     -387.50239869


--------------------------------------------------------------------------------------------------------




--------------------------------------- Iteration      1(  13)  ---------------------------------------


    POTLOK:  cpu time    0.5414: real time    0.3966
    SETDIJ:  cpu time    0.0459: real time    0.0281
    EDDIAG:  cpu time   40.3571: real time   20.1926
  RMM-DIIS:  cpu time  126.5285: real time   64.4246
    ORTHCH:  cpu time    6.5682: real time    3.2868
       DOS:  cpu time    0.0076: real time    0.0038
    CHARGE:  cpu time    6.9618: real time    6.6142
    MIXING:  cpu time    0.0235: real time    0.0118
    --------------------------------------------
      LOOP:  cpu time  181.0341: real time   94.9586

 eigenvalue-minimisations  : 16910
 total energy-change (2. order) :-0.2628162E+01  (-0.2010868E+00)
 number of electron     754.9999850 magnetization      60.7796208
 augmentation part      278.4885088 magnetization      47.0353687

 DIPCOR: dipole corrections for dipol
 direction  3 min pos     1,
 dipolmoment           0.000000      0.000000      0.299942 electrons x Angstroem
 Tr[quadrupol]    -15285.641943

 energy correction for charged system         0.000000 eV
 dipol+quadrupol energy correction           -0.002250 eV
 added-field ion interaction         -9.150858 eV  (added to PSCEN)


 Broyden mixing:
  rms(total) = 0.18359E+01    rms(broyden)= 0.18357E+01
  rms(prec ) = 0.21068E+01
  weight for this iteration     100.00

 eigenvalues of (default mixing * dielectric matrix)
  average eigenvalue GAMMA=   0.6288
  1.9520  0.8635  0.8635  0.3746  0.3746  0.0923  0.2769  0.2332

 Free energy of the ion-electron system (eV)
  ---------------------------------------------------
  alpha Z        PSCENC =       959.04986983
  Ewald energy   TEWEN  =    442377.92825593
  -Hartree energ DENC   =   -501932.12638166
  -exchange      EXHF   =         0.00000000
  -V(xc)+E(xc)   XCENC  =     -1343.36389857
  PAW double counting   =     71589.40065156   -67799.00726073
  entropy T*S    EENTRO =        -0.01176892
  eigenvalues    EBANDS =     -3297.47300412
  atomic energy  EATOM  =     59055.46611198
  Solvation  Ediel_sol  =         0.00000000
  ---------------------------------------------------
  free energy    TOTEN  =      -390.13742469 eV

  energy without entropy =     -390.12565577  energy(sigma->0) =     -390.13350171


--------------------------------------------------------------------------------------------------------




--------------------------------------- Iteration      1(  14)  ---------------------------------------


    POTLOK:  cpu time    0.5356: real time    0.3992
    SETDIJ:  cpu time    0.0459: real time    0.0280
    EDDIAG:  cpu time   40.2202: real time   20.1279
  RMM-DIIS:  cpu time  126.2559: real time   64.2346
    ORTHCH:  cpu time    6.5378: real time    3.2755
       DOS:  cpu time    0.0078: real time    0.0039
    CHARGE:  cpu time    6.8944: real time    6.4828
    MIXING:  cpu time    0.0658: real time    0.0329
    --------------------------------------------
      LOOP:  cpu time  180.5633: real time   94.5846

 eigenvalue-minimisations  : 16905
 total energy-change (2. order) :-0.3569947E+01  (-0.2167829E+00)
 number of electron     754.9999859 magnetization      56.7990085
 augmentation part      278.1076432 magnetization      42.9240463

 DIPCOR: dipole corrections for dipol
 direction  3 min pos     1,
 dipolmoment           0.000000      0.000000      0.171352 electrons x Angstroem
 Tr[quadrupol]    -15286.743690

 energy correction for charged system         0.000000 eV
 dipol+quadrupol energy correction           -0.000734 eV
 added-field ion interaction         -5.227719 eV  (added to PSCEN)


 Broyden mixing:
  rms(total) = 0.15636E+01    rms(broyden)= 0.15634E+01
  rms(prec ) = 0.16816E+01
  weight for this iteration     100.00

 eigenvalues of (default mixing * dielectric matrix)
  average eigenvalue GAMMA=   0.6382
  1.7943  1.1046  1.1046  0.5321  0.3514  0.3514  0.0923  0.2373  0.1758

 Free energy of the ion-electron system (eV)
  ---------------------------------------------------
  alpha Z        PSCENC =       962.97452434
  Ewald energy   TEWEN  =    442377.92825593
  -Hartree energ DENC   =   -501959.31567189
  -exchange      EXHF   =         0.00000000
  -V(xc)+E(xc)   XCENC  =     -1346.13748360
  PAW double counting   =     71807.73670742   -68017.49424887
  entropy T*S    EENTRO =        -0.05645084
  eigenvalues    EBANDS =     -3274.80911635
  atomic energy  EATOM  =     59055.46611198
  Solvation  Ediel_sol  =         0.00000000
  ---------------------------------------------------
  free energy    TOTEN  =      -393.70737187 eV

  energy without entropy =     -393.65092103  energy(sigma->0) =     -393.68855492


--------------------------------------------------------------------------------------------------------




--------------------------------------- Iteration      1(  15)  ---------------------------------------


    POTLOK:  cpu time    0.5415: real time    0.4816
    SETDIJ:  cpu time    0.0633: real time    0.0632
    EDDIAG:  cpu time   40.3178: real time   20.4594
  RMM-DIIS:  cpu time  126.4940: real time   64.3975
    ORTHCH:  cpu time    6.6003: real time    3.3046
[...]
   -.701E+01 -.216E+02 -.260E+03   0.691E+01 0.218E+02 0.260E+03   0.114E+00 -.157E+00 0.190E+00   -.140E-03 -.182E-03 -.259E-02
   -.658E+01 -.193E+01 -.342E+03   0.636E+01 0.178E+01 0.342E+03   0.211E+00 0.140E+00 0.452E+00   -.513E-04 -.194E-02 -.131E-02
   0.215E+01 0.200E+02 -.275E+03   -.178E+01 -.200E+02 0.275E+03   -.376E+00 -.164E-01 -.145E+00   -.514E-04 0.539E-04 -.290E-03
   -.360E+01 0.521E+01 -.194E+03   0.364E+01 -.525E+01 0.194E+03   -.410E-01 0.333E-01 -.193E-01   -.171E-03 0.210E-02 -.161E-02
   0.247E+02 -.549E+01 -.182E+04   -.242E+02 0.638E+01 0.181E+04   -.509E+00 -.901E+00 0.196E+01   -.138E-03 0.666E-03 -.121E-02
   0.455E+02 -.283E+01 -.194E+04   -.452E+02 0.307E+01 0.194E+04   -.224E+00 -.235E+00 0.440E+00   -.886E-04 -.554E-03 -.951E-03
   0.343E+02 -.752E+02 -.191E+04   -.343E+02 0.748E+02 0.191E+04   0.287E-02 0.378E+00 0.835E+00   -.755E-04 -.616E-03 -.372E-04
   0.334E+02 0.920E+02 -.187E+04   -.329E+02 -.927E+02 0.187E+04   -.527E+00 0.655E+00 0.653E+00   -.165E-03 0.592E-03 -.226E-03
   0.725E+00 0.480E+01 -.191E+04   -.300E+00 -.438E+01 0.191E+04   -.429E+00 -.363E+00 0.654E+00   0.116E-03 0.518E-03 -.142E-02
   0.804E+02 0.501E+02 -.190E+04   -.782E+02 -.483E+02 0.190E+04   -.212E+01 -.177E+01 0.151E+01   0.218E-03 -.706E-03 -.114E-02
   0.336E+02 0.114E+02 -.191E+04   -.333E+02 -.112E+02 0.191E+04   -.248E+00 -.243E+00 0.132E-01   0.155E-03 -.510E-03 -.232E-03
   -.290E+01 -.163E+02 -.190E+04   0.289E+01 0.162E+02 0.190E+04   0.779E-02 0.551E-01 -.273E+00   0.196E-03 0.537E-03 -.533E-03
   -.125E+02 0.579E+02 -.192E+04   0.122E+02 -.573E+02 0.192E+04   0.353E+00 -.556E+00 0.916E+00   0.207E-03 0.585E-03 -.147E-02
   -.444E+02 0.373E+02 -.179E+04   0.426E+02 -.356E+02 0.178E+04   0.175E+01 -.176E+01 0.110E+01   0.312E-04 -.748E-03 -.149E-02
   -.627E+02 -.566E+02 -.189E+04   0.609E+02 0.545E+02 0.189E+04   0.183E+01 0.211E+01 0.163E+01   0.306E-04 -.637E-03 -.377E-03
   -.199E+02 -.389E+02 -.188E+04   0.194E+02 0.386E+02 0.188E+04   0.509E+00 0.250E+00 0.487E+00   0.112E-03 0.530E-03 -.434E-03
   0.643E+00 -.180E+02 -.183E+04   -.675E+00 0.182E+02 0.183E+04   0.279E-01 -.227E+00 0.134E+01   -.211E-03 0.623E-03 -.124E-02
   -.767E+02 0.334E+01 -.193E+04   0.763E+02 -.290E+01 0.193E+04   0.304E+00 -.446E+00 0.841E+00   -.132E-03 -.718E-03 -.122E-02
   -.526E+02 0.465E+01 -.193E+04   0.524E+02 -.486E+01 0.193E+04   0.176E+00 0.218E+00 0.443E+00   -.104E-03 -.450E-03 -.215E-03
   -.125E+02 0.200E+02 -.185E+04   0.123E+02 -.204E+02 0.185E+04   0.182E+00 0.304E+00 0.146E+01   -.197E-03 0.683E-03 -.221E-03
 -----------------------------------------------------------------------------------------------
   0.340E+01 0.118E+02 0.356E+03   -.350E-12 0.391E-13 -.273E-11   -.341E+01 -.118E+02 -.356E+03   0.669E-04 -.750E-04 -.627E-01
 
 
 POSITION                                       TOTAL-FORCE (eV/Angst)
 -----------------------------------------------------------------------------------
      4.40284      3.81108     18.80735         0.010369     -0.003317     -0.001050
      4.12959      0.15454     19.51996        -0.000327     -0.003973     -0.003078
      2.52456      5.61180     20.09377         0.009576     -0.002618      0.007479
      8.11243      4.05627     19.51592         0.003175     -0.001611      0.009160
      7.19124      1.00560     19.30960         0.009792     -0.001279      0.000874
      7.17449      7.11634     19.33079         0.005742      0.002228      0.001472
     10.93403      4.17955     19.45847         0.003437      0.003837     -0.001509
      1.01106      1.06108     19.32474         0.000097     -0.000235     -0.002506
      1.25608      8.27492     19.54302        -0.004644     -0.001645     -0.006476
      9.45208      9.57561     19.23544         0.000226     -0.011265     -0.005429
      4.29458      8.37324     19.56853        -0.001286      0.003389     -0.005293
      4.15426      0.51807     20.65612         0.000466      0.015776      0.002250
      3.43444      5.59548     20.83933         0.005505      0.005228     -0.005655
      7.76077      4.01871     20.65496         0.005353      0.003888     -0.006858
      7.23235      0.95730     20.51324         0.007105      0.001386      0.004443
      7.22511      7.17465     20.53541         0.000282     -0.002612     -0.000134
      0.02827      4.26476     20.64727         0.008639      0.002164     -0.007613
      0.91782      0.96118     20.52556        -0.002322      0.003076      0.002368
      1.15831      8.46172     20.71703         0.004555      0.011560      0.004987
      9.42093      9.60668     20.44397         0.004342      0.008145      0.000591
      4.34984      8.19630     20.74848        -0.002970     -0.009517     -0.000914
      1.37281      1.37231     12.07416        -0.011590      0.007799     -0.011247
      1.37237      4.11717     12.07279        -0.091597      0.045982      0.005971
      1.37283      6.86390     12.07254        -0.056143      0.055629     -0.022690
      1.37322      9.60984     12.07387         0.042714      0.001738      0.045672
      4.11785      1.37226     12.07382        -0.002258     -0.077014      0.039898
      4.11785      4.11678     12.07218        -0.043537      0.034544      0.011620
      4.11766      6.86355     12.07145        -0.047123      0.115522      0.025496
      4.11764      9.60987     12.07320         0.001325     -0.037462     -0.105584
      6.86388      1.37249     12.07322         0.056372     -0.069548     -0.022209
      6.86428      4.11656     12.07186         0.045884     -0.011973     -0.011678
      6.86432      6.86309     12.07021        -0.029185      0.012586      0.016907
      6.86393      9.61002     12.07156        -0.055193     -0.045523      0.041597
      9.60986      1.37255     12.07352         0.030237      0.004748      0.018102
      9.60993      4.11697     12.07256         0.010308      0.004283     -0.088970
      9.61053      6.86344     12.07139        -0.000790     -0.033582      0.052026
      9.61051      9.60998     12.07225         0.047756     -0.058193      0.056793
      0.01836      0.00573     14.03755         0.000528      0.002854      0.007300
     10.97759      2.76186     14.04268        -0.003803      0.001456      0.000009
     10.95928      5.49490     14.05725        -0.000757      0.002544     -0.003539
      0.01238      8.22936     14.03963        -0.005465     -0.000558     -0.004285
      2.75143     10.97180     14.04129         0.003395      0.005476      0.000246
      2.72085      2.75204     14.01257         0.010473     -0.000187      0.003944
      2.70287      5.54225     14.02026         0.004463     -0.004650      0.002621
      2.74200      8.25672     14.06715         0.001230      0.004748     -0.010252
      5.49360     10.94871     14.03677         0.001682      0.000208      0.000364
      5.50476      2.72295     13.99951         0.001929      0.007855      0.001521
      5.48368      5.51425     14.01064        -0.002150      0.002204     -0.008756
      5.46426      8.23526     14.05257         0.011095     -0.003438      0.006153
      8.25230     10.95694     14.02283        -0.001246      0.004766      0.001979
      8.25542      2.73387     14.02820        -0.005682      0.001061     -0.006757
      8.24006      5.48398     14.03597         0.004344     -0.000474      0.000978
      8.22576      8.21421     14.03278        -0.001251      0.005580     -0.004644
      1.38844      1.42009     16.02221         0.001914     -0.003773     -0.001931
      1.34675      4.17789     16.01099        -0.008806     -0.006867      0.001237
      1.33226      6.90455     16.08854        -0.000487      0.007693     -0.000648
      1.42018      9.63414     16.03021         0.001405      0.004861     -0.002818
      4.12088      1.34202     15.93185        -0.004511      0.000787     -0.000181
      4.08690      4.15386     15.82979        -0.000042      0.003632     -0.002016
      4.05448      6.89912     16.04217        -0.007290     -0.008323     -0.004433
      4.12911      9.61781     16.13720        -0.000119     -0.001803     -0.002992
      6.90298      1.31788     15.97638         0.009488     -0.002045     -0.000261
      6.87762      4.10735     15.92958         0.005102      0.002731      0.001122
      6.82338      6.83362     16.02535         0.002703     -0.006992      0.000453
      6.83600      9.57155     16.00970        -0.000463     -0.001362      0.003432
      9.62552      1.39034     15.99978         0.004984     -0.001314     -0.004877
      9.57011      4.08445     16.08020        -0.006386     -0.003806     -0.007835
      9.58702      6.83733     16.02611         0.006640      0.004502      0.004797
      9.62671      9.58368     15.97614        -0.000447     -0.001009     -0.001802
     10.95855     10.97044     17.97732        -0.004633     -0.000872      0.003235
      0.14196      2.68614     18.14964        -0.001370      0.008467     -0.000179
     10.82124      5.51873     18.04949        -0.000653      0.000451     -0.000672
     10.93658      8.26439     18.08775         0.005660     -0.003896     -0.000371
      2.69832      0.24111     18.14209         0.000424      0.003884      0.005987
      2.88253      2.96838     17.94024        -0.000958     -0.002928     -0.001251
      2.58293      5.62835     18.17254        -0.005529     -0.003127     -0.006116
      2.76676      8.38286     18.24131        -0.002530      0.001812      0.000123
      5.56901      0.03482     18.12999         0.008598      0.000409     -0.001205
      5.54747      2.68440     17.80778        -0.007952      0.000364      0.002551
      5.24994      5.34439     17.95562         0.010292      0.001127     -0.002679
      5.59407      8.07541     18.12925        -0.001099      0.007945      0.014182
      8.29173     10.90152     17.99566        -0.006676      0.002312      0.001088
      8.20427      2.63798     18.12124         0.011270     -0.001413     -0.015088
      8.00759      5.49871     18.14356         0.010848      0.000076     -0.010372
      8.27277      8.22136     18.02131        -0.002457     -0.003109      0.003824
 -----------------------------------------------------------------------------------
    total drift:                               -0.007424     -0.000257      0.010564


--------------------------------------------------------------------------------------------------------



  FREE ENERGIE OF THE ION-ELECTRON SYSTEM (eV)
  ---------------------------------------------------
  free  energy   TOTEN  =      -487.25105655 eV

  energy  without entropy=     -487.10106224  energy(sigma->0) =     -487.20105845
 


--------------------------------------------------------------------------------------------------------


    POTLOK:  cpu time    0.4095: real time    1.2894


--------------------------------------------------------------------------------------------------------




--------------------------------------------------------------------------------------------------------


  
 reached required accuracy - stopping structural energy minimisation
     LOOP+:  cpu time13049.5851: real time 6902.1508
    4ORBIT:  cpu time    0.0000: real time    0.0000
 


 total charge     
 
# of ion       s       p       d       tot
------------------------------------------
    1        1.326   2.192   0.000   3.518
    2        1.315   2.364   0.000   3.679
    3        1.353   2.314   0.000   3.667
    4        1.314   2.366   0.000   3.680
    5        1.301   2.346   0.000   3.647
    6        1.298   2.353   0.000   3.652
    7        1.311   2.373   0.000   3.683
    8        1.298   2.353   0.000   3.651
    9        1.310   2.376   0.000   3.685
   10        1.298   2.340   0.000   3.637
   11        1.313   2.370   0.000   3.683
   12        1.639   3.441   0.000   5.080
   13        1.646   3.444   0.000   5.090
   14        1.639   3.441   0.000   5.080
   15        1.636   3.440   0.000   5.076
   16        1.635   3.440   0.000   5.075
   17        1.639   3.443   0.000   5.081
   18        1.635   3.438   0.000   5.073
   19        1.639   3.441   0.000   5.080
   20        1.635   3.439   0.000   5.074
   21        1.639   3.443   0.000   5.082
   22        0.444   0.305   8.522   9.271
   23        0.442   0.306   8.521   9.269
   24        0.444   0.305   8.522   9.271
   25        0.445   0.303   8.520   9.268
   26        0.442   0.307   8.518   9.267
   27        0.439   0.303   8.525   9.268
   28        0.443   0.306   8.519   9.268
   29        0.442   0.304   8.527   9.273
   30        0.445   0.307   8.518   9.270
   31        0.441   0.306   8.522   9.270
   32        0.444   0.304   8.521   9.268
   33        0.442   0.304   8.520   9.266
   34        0.443   0.306   8.520   9.268
   35        0.443   0.305   8.526   9.273
   36        0.444   0.303   8.520   9.267
   37        0.438   0.306   8.520   9.263
   38        0.476   0.460   8.474   9.410
   39        0.481   0.467   8.472   9.419
   40        0.478   0.465   8.468   9.411
   41        0.475   0.459   8.473   9.407
   42        0.482   0.468   8.469   9.419
   43        0.484   0.475   8.465   9.424
   44        0.483   0.472   8.469   9.424
   45        0.480   0.465   8.468   9.413
   46        0.482   0.470   8.469   9.421
   47        0.482   0.473   8.470   9.425
   48        0.484   0.473   8.468   9.425
   49        0.478   0.463   8.470   9.411
   50        0.479   0.464   8.479   9.422
   51        0.484   0.475   8.465   9.425
   52        0.483   0.469   8.472   9.423
   53        0.476   0.459   8.477   9.411
   54        0.487   0.453   8.483   9.422
   55        0.470   0.440   8.496   9.407
   56        0.477   0.445   8.482   9.405
   57        0.472   0.439   8.492   9.402
   58        0.476   0.454   8.499   9.430
   59        0.480   0.471   8.506   9.458
   60        0.471   0.440   8.488   9.399
   61        0.473   0.429   8.475   9.377
   62        0.495   0.462   8.492   9.449
   63        0.478   0.456   8.499   9.433
   64        0.489   0.453   8.483   9.425
   65        0.475   0.452   8.488   9.415
   66        0.479   0.456   8.485   9.420
   67        0.471   0.432   8.483   9.386
   68        0.483   0.457   8.484   9.424
   69        0.490   0.457   8.496   9.442
   70        0.468   0.502   8.550   9.520
   71        0.447   0.507   8.496   9.450
   72        0.483   0.475   8.528   9.486
   73        0.481   0.548   8.499   9.527
   74        0.448   0.505   8.504   9.457
   75        0.494   0.493   8.532   9.519
   76        0.473   0.487   8.533   9.493
   77        0.460   0.565   8.491   9.515
   78        0.447   0.494   8.504   9.445
   79        0.523   0.571   8.545   9.639
   80        0.491   0.488   8.529   9.508
   81        0.469   0.535   8.495   9.499
   82        0.477   0.551   8.526   9.553
   83        0.449   0.496   8.503   9.448
   84        0.449   0.515   8.494   9.458
   85        0.473   0.541   8.532   9.546
--------------------------------------------------
tot         60.781  87.980 543.960 692.722
 


 magnetization (x)
 
# of ion       s       p       d       tot
------------------------------------------
    1       -0.000  -0.000   0.000  -0.000
    2        0.000  -0.000   0.000  -0.000
    3       -0.000  -0.000   0.000  -0.000
    4        0.000  -0.000   0.000  -0.000
    5       -0.000  -0.000   0.000  -0.000
    6        0.000  -0.000   0.000  -0.000
    7        0.000  -0.000   0.000  -0.000
    8        0.000  -0.000   0.000  -0.000
    9        0.000   0.000   0.000   0.000
   10        0.000   0.000   0.000   0.000
   11        0.000   0.000   0.000   0.000
   12       -0.000  -0.000   0.000  -0.000
   13       -0.000  -0.000   0.000  -0.000
   14       -0.000  -0.000   0.000  -0.000
   15       -0.000  -0.000   0.000  -0.000
   16       -0.000  -0.000   0.000  -0.000
   17       -0.000  -0.000   0.000  -0.000
   18       -0.000  -0.000   0.000  -0.000
   19       -0.000  -0.000   0.000  -0.000
   20       -0.000   0.000   0.000  -0.000
   21       -0.000  -0.000   0.000  -0.000
   22       -0.000  -0.000   0.001   0.001
   23       -0.000  -0.000   0.001   0.001
   24       -0.000  -0.000   0.001   0.001
   25        0.000  -0.000   0.001   0.001
   26       -0.000  -0.000   0.001   0.001
   27       -0.000  -0.000   0.001   0.001
   28       -0.000  -0.000   0.001   0.001
   29       -0.000  -0.000   0.001   0.001
   30       -0.000  -0.000   0.001   0.001
   31       -0.000  -0.000   0.001   0.001
   32       -0.000  -0.000   0.001   0.001
   33       -0.000  -0.000   0.001   0.001
   34        0.000  -0.000   0.001   0.001
   35       -0.000  -0.000   0.001   0.001
   36        0.000  -0.000   0.001   0.001
   37       -0.000  -0.000   0.001   0.001
   38       -0.000  -0.000   0.001   0.001
   39       -0.000  -0.000   0.001   0.001
   40       -0.000  -0.000   0.001   0.001
   41       -0.000  -0.000   0.001   0.001
   42       -0.000  -0.000   0.001   0.001
   43       -0.000  -0.000   0.001   0.001
   44       -0.000  -0.000   0.001   0.001
   45       -0.000  -0.000   0.001   0.001
   46       -0.000  -0.000   0.001   0.001
   47       -0.000  -0.000   0.001   0.001
   48       -0.000  -0.000   0.001   0.001
   49       -0.000  -0.000   0.001   0.001
   50       -0.000  -0.000   0.001   0.001
   51       -0.000  -0.000   0.001   0.001
   52       -0.000  -0.000   0.001   0.001
   53       -0.000  -0.000   0.001   0.001
   54       -0.000  -0.000   0.000   0.000
   55       -0.000  -0.000   0.001   0.001
   56       -0.000  -0.000   0.000   0.000
   57       -0.000  -0.000   0.001   0.000
   58       -0.000  -0.000   0.001   0.001
   59       -0.000  -0.000   0.001   0.001
   60       -0.000  -0.000   0.000   0.000
   61       -0.000  -0.000   0.000   0.000
   62       -0.000  -0.000   0.000   0.000
   63       -0.000  -0.000   0.001   0.001
   64       -0.000  -0.000   0.000   0.000
   65       -0.000  -0.000   0.001   0.001
   66       -0.000  -0.000   0.001   0.001
   67       -0.000  -0.000   0.001   0.000
   68       -0.000  -0.000   0.000   0.000
   69       -0.000  -0.000   0.000   0.000
   70       -0.000  -0.000   0.000   0.000
   71       -0.000  -0.000   0.000   0.000
   72       -0.000  -0.000   0.000   0.000
   73       -0.000  -0.000   0.000   0.000
   74       -0.000  -0.000   0.000   0.000
   75       -0.000  -0.000   0.000   0.000
   76       -0.000  -0.000   0.000   0.000
   77       -0.000  -0.000   0.000   0.000
   78       -0.000  -0.000   0.000   0.000
   79       -0.000  -0.000   0.000   0.000
   80       -0.000  -0.000   0.000   0.000
   81       -0.000  -0.000   0.000   0.000
   82       -0.000  -0.000   0.000   0.000
   83       -0.000  -0.000   0.000   0.000
   84       -0.000  -0.000   0.000   0.000
   85       -0.000  -0.000   0.000   0.000
--------------------------------------------------
tot         -0.000  -0.001   0.035   0.034
 

 total amount of memory used by VASP MPI-rank0   386847. kBytes
=======================================================================

   base      :      30000. kBytes
   nonlr-proj:      58839. kBytes
   fftplans  :       9850. kBytes
   grid      :      96415. kBytes
   one-center:       2643. kBytes
   wavefun   :     189100. kBytes
 
  
  
 General timing and accounting informations for this job:
 ========================================================
  
                  Total CPU time used (sec):    13135.504
                            User time (sec):    12260.782
                          System time (sec):      874.722
                         Elapsed time (sec):     7026.646
  
                   Maximum memory used (kb):      872084.
                   Average memory used (kb):           0.
  
                          Minor page faults:       926231
                          Major page faults:           22
                 Voluntary context switches:        51970
