 vasp.5.4.4.18Apr17-6-g9f103f2a35 (build May 01 2020 14:57:12) complex          
  
 executed on             LinuxIFC date 2021.10.23  11:13:10
 running on   96 total cores
 distrk:  each k-point on   96 cores,    1 groups
 distr:  one band on NCORES_PER_BAND=   1 cores,   96 groups


--------------------------------------------------------------------------------------------------------


 INCAR:
 POTCAR:    PAW_PBE Pd 04Jan2005                  
 POTCAR:    PAW_PBE N 08Apr2002                   
 POTCAR:    PAW_PBE O 08Apr2002                   
 POTCAR:    PAW_PBE H 15Jun2001                   

 ----------------------------------------------------------------------------- 
|                                                                             |
|           W    W    AA    RRRRR   N    N  II  N    N   GGGG   !!!           |
|           W    W   A  A   R    R  NN   N  II  NN   N  G    G  !!!           |
|           W    W  A    A  R    R  N N  N  II  N N  N  G       !!!           |
|           W WW W  AAAAAA  RRRRR   N  N N  II  N  N N  G  GGG   !            |
|           WW  WW  A    A  R   R   N   NN  II  N   NN  G    G                |
|           W    W  A    A  R    R  N    N  II  N    N   GGGG   !!!           |
|                                                                             |
|      For optimal performance we recommend to set                            |
|        NCORE= 4 - approx SQRT( number of cores)                             |
|      NCORE specifies how many cores store one orbital (NPAR=cpu/NCORE).     |
|      This setting can  greatly improve the performance of VASP for DFT.     |
|      The default,   NCORE=1            might be grossly inefficient         |
|      on modern multi-core architectures or massively parallel machines.     |
|      Do your own testing !!!!                                               |
|      Unfortunately you need to use the default for GW and RPA calculations. |
|      (for HF NCORE is supported but not extensively tested yet)             |
|                                                                             |
 ----------------------------------------------------------------------------- 

 POTCAR:    PAW_PBE Pd 04Jan2005                  
   VRHFIN =Pd : s1 d9                                                           
   LEXCH  = PE                                                                  
   EATOM  =   809.7530 eV,   59.5152 Ry                                         
                                                                                
   TITEL  = PAW_PBE Pd 04Jan2005                                                
   LULTRA =        F    use ultrasoft PP ?                                      
   IUNSCR =        1    unscreen: 0-lin 1-nonlin 2-no                           
   RPACOR =    2.000    partial core radius                                     
   POMASS =  106.420; ZVAL   =   10.000    mass and valenz                      
   RCORE  =    2.600    outmost cutoff radius                                   
   RWIGS  =    2.710; RWIGS  =    1.434    wigner-seitz radius (au A)           
   ENMAX  =  250.925; ENMIN  =  188.194 eV                                      
   ICORE  =        3    local potential                                         
   LCOR   =        T    correct aug charges                                     
   LPAW   =        T    paw PP                                                  
   EAUG   =  416.230                                                            
   DEXC   =    0.000                                                            
   RMAX   =    2.653    core radius for proj-oper                               
   RAUG   =    1.300    factor for augmentation sphere                          
   RDEP   =    2.734    radius for radial grids                                 
   RDEPT  =    2.103    core radius for aug-charge                              
                                                                                
   Atomic configuration                                                         
   12 entries                                                                   
     n  l   j            E        occ.                                          
     1  0  0.50    -24164.6631   2.0000                                         
     2  0  0.50     -3530.9218   2.0000                                         
     2  1  1.50     -3165.6822   6.0000                                         
     3  0  0.50      -639.4577   2.0000                                         
     3  1  1.50      -519.4532   6.0000                                         
     3  2  2.50      -328.9757  10.0000                                         
     4  0  0.50       -88.7014   2.0000                                         
     4  1  1.50       -54.4540   6.0000                                         
     4  2  2.50        -6.6878   9.0000                                         
     5  0  0.50        -4.3543   1.0000                                         
     5  1  0.50        -1.3606   0.0000                                         
     4  3  2.50        -1.3606   0.0000                                         
   Description                                                                  
     l       E           TYP  RCUT    TYP  RCUT                                 
     2     -6.6878251     23  2.400                                             
     2     -8.0484077     23  2.400                                             
     0     -4.3542939     23  2.400                                             
     0      4.3406793     23  2.400                                             
     1     -4.0817478     23  2.600                                             
     1     15.8380318     23  2.600                                             
     3     -4.0817478     23  2.400                                             
  local pseudopotential read in
  partial core-charges read in
  partial kinetic energy density read in
  atomic valenz-charges read in
  non local Contribution for L=           2  read in
    real space projection operators read in
  non local Contribution for L=           2  read in
    real space projection operators read in
  non local Contribution for L=           0  read in
    real space projection operators read in
  non local Contribution for L=           0  read in
    real space projection operators read in
  non local Contribution for L=           1  read in
    real space projection operators read in
  non local Contribution for L=           1  read in
    real space projection operators read in
    PAW grid and wavefunctions read in
 
   number of l-projection  operators is LMAX  =           6
   number of lm-projection operators is LMMAX =          18
 
 POTCAR:    PAW_PBE N 08Apr2002                   
   VRHFIN =N: s2p3                                                              
   LEXCH  = PE                                                                  
   EATOM  =   264.5486 eV,   19.4438 Ry                                         
                                                                                
   TITEL  = PAW_PBE N 08Apr2002                                                 
   LULTRA =        F    use ultrasoft PP ?                                      
   IUNSCR =        1    unscreen: 0-lin 1-nonlin 2-no                           
   RPACOR =    1.200    partial core radius                                     
   POMASS =   14.001; ZVAL   =    5.000    mass and valenz                      
   RCORE  =    1.500    outmost cutoff radius                                   
   RWIGS  =    1.400; RWIGS  =    0.741    wigner-seitz radius (au A)           
   ENMAX  =  400.000; ENMIN  =  300.000 eV                                      
   ICORE  =        2    local potential                                         
   LCOR   =        T    correct aug charges                                     
   LPAW   =        T    paw PP                                                  
   EAUG   =  627.112                                                            
   DEXC   =    0.000                                                            
   RMAX   =    1.529    core radius for proj-oper                               
   RAUG   =    1.300    factor for augmentation sphere                          
   RDEP   =    1.514    radius for radial grids                                 
   RDEPT  =    1.338    core radius for aug-charge                              
                                                                                
   Atomic configuration                                                         
    4 entries                                                                   
     n  l   j            E        occ.                                          
     1  0  0.50      -384.7179   2.0000                                         
     2  0  0.50       -18.5828   2.0000                                         
     2  1  0.50        -7.0898   3.0000                                         
     3  2  1.50        -6.8029   0.0000                                         
   Description                                                                  
     l       E           TYP  RCUT    TYP  RCUT                                 
     0    -18.5828119     23  1.200                                             
     0    -13.5018863     23  1.200                                             
     1     -7.0897853     23  1.500                                             
     1      9.5240782     23  1.500                                             
     2     -6.8029130      7  1.500                                             
  local pseudopotential read in
  partial core-charges read in
  partial kinetic energy density read in
  atomic valenz-charges read in
  non local Contribution for L=           0  read in
    real space projection operators read in
  non local Contribution for L=           0  read in
    real space projection operators read in
  non local Contribution for L=           1  read in
    real space projection operators read in
  non local Contribution for L=           1  read in
    real space projection operators read in
    PAW grid and wavefunctions read in
 
   number of l-projection  operators is LMAX  =           4
   number of lm-projection operators is LMMAX =           8
 
 POTCAR:    PAW_PBE O 08Apr2002                   
   VRHFIN =O: s2p4                                                              
   LEXCH  = PE                                                                  
   EATOM  =   432.3788 eV,   31.7789 Ry                                         
                                                                                
   TITEL  = PAW_PBE O 08Apr2002                                                 
   LULTRA =        F    use ultrasoft PP ?                                      
   IUNSCR =        1    unscreen: 0-lin 1-nonlin 2-no                           
   RPACOR =    1.200    partial core radius                                     
   POMASS =   16.000; ZVAL   =    6.000    mass and valenz                      
   RCORE  =    1.520    outmost cutoff radius                                   
   RWIGS  =    1.550; RWIGS  =    0.820    wigner-seitz radius (au A)           
   ENMAX  =  400.000; ENMIN  =  300.000 eV                                      
   ICORE  =        2    local potential                                         
   LCOR   =        T    correct aug charges                                     
   LPAW   =        T    paw PP                                                  
   EAUG   =  605.392                                                            
   DEXC   =    0.000                                                            
   RMAX   =    1.553    core radius for proj-oper                               
   RAUG   =    1.300    factor for augmentation sphere                          
   RDEP   =    1.550    radius for radial grids                                 
   RDEPT  =    1.329    core radius for aug-charge                              
                                                                                
   Atomic configuration                                                         
    4 entries                                                                   
     n  l   j            E        occ.                                          
     1  0  0.50      -514.6923   2.0000                                         
     2  0  0.50       -23.9615   2.0000                                         
     2  1  0.50        -9.0305   4.0000                                         
     3  2  1.50        -9.5241   0.0000                                         
   Description                                                                  
     l       E           TYP  RCUT    TYP  RCUT                                 
     0    -23.9615318     23  1.200                                             
     0     -9.5240782     23  1.200                                             
     1     -9.0304911     23  1.520                                             
     1      8.1634956     23  1.520                                             
     2     -9.5240782      7  1.500                                             
  local pseudopotential read in
  partial core-charges read in
  partial kinetic energy density read in
  kinetic energy density of atom read in
  atomic valenz-charges read in
  non local Contribution for L=           0  read in
    real space projection operators read in
  non local Contribution for L=           0  read in
    real space projection operators read in
  non local Contribution for L=           1  read in
    real space projection operators read in
  non local Contribution for L=           1  read in
    real space projection operators read in
    PAW grid and wavefunctions read in
 
   number of l-projection  operators is LMAX  =           4
   number of lm-projection operators is LMMAX =           8
 
 POTCAR:    PAW_PBE H 15Jun2001                   
   VRHFIN =H: ultrasoft test                                                    
   LEXCH  = PE                                                                  
   EATOM  =    12.4884 eV,    0.9179 Ry                                         
                                                                                
   TITEL  = PAW_PBE H 15Jun2001                                                 
   LULTRA =        F    use ultrasoft PP ?                                      
   IUNSCR =        0    unscreen: 0-lin 1-nonlin 2-no                           
   RPACOR =    0.000    partial core radius                                     
   POMASS =    1.000; ZVAL   =    1.000    mass and valenz                      
   RCORE  =    1.100    outmost cutoff radius                                   
   RWIGS  =    0.700; RWIGS  =    0.370    wigner-seitz radius (au A)           
   ENMAX  =  250.000; ENMIN  =  200.000 eV                                      
   RCLOC  =    0.701    cutoff for local pot                                    
   LCOR   =        T    correct aug charges                                     
   LPAW   =        T    paw PP                                                  
   EAUG   =  400.000                                                            
   RMAX   =    1.123    core radius for proj-oper                               
   RAUG   =    1.200    factor for augmentation sphere                          
   RDEP   =    1.112    radius for radial grids                                 
   RDEPT  =    0.926    core radius for aug-charge                              
                                                                                
   Atomic configuration                                                         
    2 entries                                                                   
     n  l   j            E        occ.                                          
     1  0  0.50        -6.4927   1.0000                                         
     2  1  0.50        -3.4015   0.0000                                         
   Description                                                                  
     l       E           TYP  RCUT    TYP  RCUT                                 
     0     -6.4927494     23  1.100                                             
     0      6.8029130     23  1.100                                             
     1     -4.0817478     23  1.100                                             
  local pseudopotential read in
  atomic valenz-charges read in
  non local Contribution for L=           0  read in
    real space projection operators read in
  non local Contribution for L=           0  read in
    real space projection operators read in
  non local Contribution for L=           1  read in
    real space projection operators read in
    PAW grid and wavefunctions read in
 
   number of l-projection  operators is LMAX  =           3
   number of lm-projection operators is LMMAX =           5
 
 Optimization of the real space projectors (new method)

 maximal supplied QI-value         = 14.36
 optimisation between [QCUT,QGAM] = [ 10.20, 20.39] = [ 29.12,116.47] Ry 
 Optimized for a Real-space Cutoff    1.55 Angstroem

   l    n(q)    QCUT    max X(q) W(low)/X(q) W(high)/X(q)  e(spline) 
   2      9    10.197    59.108    0.12E-03    0.40E-04    0.11E-06
   2      9    10.197    58.101    0.12E-03    0.39E-04    0.12E-06
   0      9    10.197   102.235    0.41E-04    0.86E-05    0.83E-07
   0      9    10.197    58.388    0.37E-04    0.79E-05    0.78E-07
   1      9    10.197    22.191    0.25E-03    0.13E-03    0.84E-07
   1      9    10.197    15.590    0.21E-03    0.11E-03    0.74E-07
 Optimization of the real space projectors (new method)

 maximal supplied QI-value         = 25.13
 optimisation between [QCUT,QGAM] = [ 10.05, 20.36] = [ 28.30,116.06] Ry 
 Optimized for a Real-space Cutoff    1.70 Angstroem

   l    n(q)    QCUT    max X(q) W(low)/X(q) W(high)/X(q)  e(spline) 
   0     10    10.053    79.467    0.61E-04    0.98E-04    0.61E-06
   0     10    10.053    66.151    0.60E-04    0.98E-04    0.61E-06
   1     10    10.053     8.350    0.17E-03    0.71E-03    0.45E-05
   1     10    10.053     5.531    0.18E-03    0.77E-03    0.49E-05
 Optimization of the real space projectors (new method)

 maximal supplied QI-value         = 24.76
 optimisation between [QCUT,QGAM] = [ 10.15, 20.30] = [ 28.85,115.39] Ry 
 Optimized for a Real-space Cutoff    1.51 Angstroem

   l    n(q)    QCUT    max X(q) W(low)/X(q) W(high)/X(q)  e(spline) 
   0      9    10.150    20.381    0.17E-03    0.18E-03    0.41E-06
   0      9    10.150    15.268    0.18E-03    0.20E-03    0.43E-06
   1      9    10.150     5.964    0.16E-03    0.20E-03    0.36E-06
   1      9    10.150     5.382    0.13E-03    0.16E-03    0.33E-06
 Optimization of the real space projectors (new method)

 maximal supplied QI-value         = 34.20
 optimisation between [QCUT,QGAM] = [  9.92, 20.18] = [ 27.55,114.04] Ry 
 Optimized for a Real-space Cutoff    1.34 Angstroem

   l    n(q)    QCUT    max X(q) W(low)/X(q) W(high)/X(q)  e(spline) 
   0      8     9.919    19.460    0.16E-03    0.20E-03    0.36E-06
   0      8     9.919    12.209    0.16E-03    0.20E-03    0.35E-06
   1      8     9.919     4.655    0.19E-03    0.46E-03    0.40E-06
  PAW_PBE Pd 04Jan2005                  :
 energy of atom  1       EATOM= -809.7530
 kinetic energy error for atom=    0.0091 (will be added to EATOM!!)
  PAW_PBE N 08Apr2002                   :
 energy of atom  2       EATOM= -264.5486
 kinetic energy error for atom=    0.0736 (will be added to EATOM!!)
  PAW_PBE O 08Apr2002                   :
 energy of atom  3       EATOM= -432.3788
 kinetic energy error for atom=    0.1156 (will be added to EATOM!!)
  PAW_PBE H 15Jun2001                   :
 energy of atom  4       EATOM=  -12.4884
 kinetic energy error for atom=    0.0098 (will be added to EATOM!!)
 
 
 POSCAR: Pd N O H                                
  positions in direct lattice
  velocities in cartesian coordinates
 exchange correlation table for  LEXCH =        8
   RHO(1)=    0.500       N(1)  =     2000
   RHO(2)=  100.500       N(2)  =     4000
 


--------------------------------------------------------------------------------------------------------


 ion  position               nearest neighbor table
   1  0.125  0.125  0.403-   2 2.75   5 2.75   4 2.75  13 2.75  22 2.75  17 2.75  21 2.75  18 2.75

   2  0.125  0.375  0.403-   1 2.75   3 2.75   6 2.75  14 2.75  23 2.75  19 2.75  22 2.75  18 2.76

   3  0.125  0.625  0.403-   2 2.75   4 2.75   7 2.75  15 2.75  19 2.75  23 2.75  20 2.76  24 2.76

   4  0.125  0.875  0.403-   3 2.75   8 2.75   1 2.75  16 2.75  21 2.75  17 2.75  20 2.75  24 2.76

   5  0.375  0.125  0.403-   1 2.75   6 2.75   9 2.75   8 2.75  26 2.75  22 2.75  25 2.76  21 2.76

   6  0.375  0.375  0.403-   2 2.75   5 2.75   7 2.75  10 2.75  27 2.75  23 2.75  26 2.76  22 2.76

   7  0.375  0.625  0.403-   3 2.75   6 2.75   8 2.75  11 2.75  27 2.75  23 2.75  28 2.76  24 2.76

   8  0.375  0.875  0.403-   4 2.75   7 2.75  12 2.75   5 2.75  25 2.75  21 2.76  28 2.76  24 2.76

   9  0.625  0.125  0.403-   5 2.75  10 2.75  13 2.75  12 2.75  26 2.75  25 2.75  29 2.75  30 2.76

  10  0.625  0.375  0.403-   6 2.75   9 2.75  11 2.75  14 2.75  27 2.75  31 2.75  26 2.75  30 2.76

  11  0.625  0.625  0.403-   7 2.75  10 2.75  12 2.75  15 2.75  27 2.75  31 2.75  28 2.75  32 2.76

  12  0.625  0.875  0.403-   8 2.75  11 2.75  16 2.75   9 2.75  25 2.75  29 2.75  28 2.75  32 2.76

  13  0.875  0.125  0.403-   9 2.75  14 2.75   1 2.75  16 2.75  17 2.75  29 2.75  18 2.76  30 2.76

  14  0.875  0.375  0.403-  10 2.75  13 2.75  15 2.75   2 2.75  31 2.75  19 2.75  18 2.76  30 2.76

  15  0.875  0.625  0.403-  11 2.75  14 2.75  16 2.75   3 2.75  31 2.75  19 2.75  32 2.76  20 2.76

  16  0.875  0.875  0.403-  12 2.75  15 2.75  13 2.75   4 2.75  29 2.75  17 2.75  32 2.76  20 2.76

  17  1.000  0.000  0.468-  18 2.74  21 2.74  29 2.74  20 2.74  45 2.75  13 2.75   1 2.75  48 2.75
                            16 2.75   4 2.75  36 2.76  33 2.78
  18  0.000  0.250  0.468-  22 2.74  17 2.74  45 2.75  30 2.75  46 2.75  19 2.75  34 2.75   1 2.75
                            13 2.76   2 2.76  14 2.76  33 2.76
  19  0.000  0.500  0.468-  23 2.74  31 2.75  20 2.75  18 2.75  47 2.75  46 2.75   3 2.75   2 2.75
                            15 2.75  14 2.75  34 2.75  35 2.76
  20  0.000  0.750  0.468-  24 2.74  17 2.74  19 2.75  32 2.75  48 2.75  47 2.75  36 2.75   4 2.75
                             3 2.76  16 2.76  15 2.76  35 2.77
  21  0.250  1.000  0.468-  17 2.74  22 2.74  24 2.74  37 2.75   4 2.75  36 2.75   1 2.75  40 2.76
                            25 2.76   8 2.76   5 2.76  33 2.76
  22  0.250  0.250  0.468-  38 2.73  18 2.74  21 2.74   1 2.75  33 2.75  23 2.75   5 2.75  26 2.75
                            37 2.75   2 2.75  34 2.76   6 2.76
  23  0.250  0.500  0.468-  38 2.73  19 2.74  39 2.74  24 2.74  22 2.75   3 2.75   2 2.75  35 2.75
                            27 2.75  34 2.75   7 2.75   6 2.75
  24  0.250  0.750  0.468-  39 2.74  20 2.74  23 2.74  21 2.74  36 2.75  28 2.75  40 2.75   3 2.76
                             4 2.76   7 2.76   8 2.76  35 2.76
  25  0.500  1.000  0.468-  29 2.74  26 2.74  28 2.75  37 2.75  12 2.75   9 2.75  44 2.75   8 2.75
                            40 2.76  21 2.76   5 2.76  41 2.76
  26  0.500  0.250  0.468-  38 2.73  30 2.74  25 2.74  41 2.75   9 2.75  27 2.75   5 2.75  10 2.75
                            22 2.75  37 2.75  42 2.76   6 2.76
  27  0.500  0.500  0.468-  38 2.73  31 2.74  39 2.74  28 2.74  11 2.75  26 2.75  10 2.75  43 2.75
                            42 2.75  23 2.75   7 2.75   6 2.75
  28  0.500  0.750  0.468-  39 2.74  32 2.74  27 2.74  25 2.75  44 2.75  24 2.75  11 2.75  12 2.75
                            40 2.76   7 2.76   8 2.76  43 2.76
  29  0.750  0.000  0.468-  30 2.74  25 2.74  17 2.74  32 2.75  13 2.75  45 2.75  16 2.75  48 2.75
                             9 2.75  12 2.75  44 2.76  41 2.78
  30  0.750  0.250  0.468-  29 2.74  26 2.74  45 2.75  18 2.75  46 2.75  31 2.75  42 2.75   9 2.76
                            13 2.76  41 2.76  10 2.76  14 2.76
  31  0.750  0.500  0.468-  27 2.74  19 2.75  32 2.75  30 2.75  46 2.75  14 2.75  47 2.75  15 2.75
                            10 2.75  11 2.75  42 2.75  43 2.76
  32  0.750  0.750  0.468-  28 2.74  29 2.75  31 2.75  20 2.75  48 2.75  47 2.75  44 2.75  16 2.76
                            12 2.76  15 2.76  11 2.76  43 2.77
  33  0.126  0.126  0.534-  37 2.73  34 2.74  53 2.75  50 2.75  22 2.75  49 2.76  45 2.76  36 2.76
                            18 2.76  21 2.76  54 2.78  17 2.78
  34  0.125  0.375  0.533-  35 2.73  33 2.74  46 2.74  38 2.75  18 2.75  23 2.75  19 2.75  51 2.76
                            22 2.76  50 2.76  54 2.80  55 2.80
  35  0.126  0.624  0.534-  34 2.73  39 2.74  51 2.75  47 2.75  23 2.75  56 2.76  52 2.76  36 2.76
                            19 2.76  24 2.76  20 2.77  55 2.80
  36  0.125  0.875  0.533-  40 2.74  48 2.75  24 2.75  52 2.75  53 2.75  21 2.75  20 2.75  49 2.76
                            35 2.76  33 2.76  17 2.76  56 2.77
  37  0.375  0.124  0.533-  41 2.73  33 2.73  40 2.73  38 2.75  21 2.75  25 2.75  22 2.75  26 2.75
                            57 2.76  53 2.76  54 2.81  58 2.81
  38  0.375  0.374  0.532-  26 2.73  22 2.73  23 2.73  27 2.73  42 2.75  37 2.75  34 2.75  39 2.75
                            58 2.82  54 2.82  55 2.82  59 2.83
  39  0.375  0.625  0.533-  43 2.74  24 2.74  35 2.74  28 2.74  27 2.74  23 2.74  40 2.75  38 2.75
                            56 2.79  60 2.79  59 2.82  55 2.82
  40  0.375  0.875  0.533-  37 2.73  44 2.74  36 2.74  39 2.75  24 2.75  28 2.76  25 2.76  21 2.76
                            53 2.76  57 2.76  60 2.78  56 2.78
  41  0.624  0.126  0.534-  37 2.73  42 2.74  62 2.74  57 2.74  26 2.75  61 2.76  44 2.76  30 2.76
                            45 2.76  25 2.76  29 2.78  58 2.78
  42  0.625  0.375  0.533-  43 2.73  41 2.74  46 2.75  38 2.75  27 2.75  30 2.75  31 2.75  62 2.75
                            26 2.76  63 2.76  58 2.80  59 2.80
  43  0.624  0.624  0.534-  42 2.73  39 2.74  63 2.75  27 2.75  47 2.75  64 2.76  44 2.76  60 2.76
                            31 2.76  28 2.76  32 2.77  59 2.79
  44  0.625  0.875  0.533-  40 2.74  28 2.75  48 2.75  64 2.75  32 2.75  25 2.75  61 2.75  57 2.76
                            43 2.76  41 2.76  29 2.76  60 2.76
  45  0.875  0.125  0.533-  48 2.74  18 2.75  30 2.75  46 2.75  17 2.75  29 2.75  61 2.75  62 2.75
                            49 2.75  33 2.76  50 2.76  41 2.76
  46  0.875  0.375  0.533-  34 2.74  47 2.74  42 2.75  30 2.75  45 2.75  18 2.75  31 2.75  19 2.75
                            62 2.76  51 2.76  63 2.76  50 2.76
  47  0.875  0.625  0.533-  46 2.74  48 2.75  32 2.75  20 2.75  19 2.75  35 2.75  31 2.75  64 2.75
                            43 2.75  52 2.76  51 2.76  63 2.76
  48  0.875  0.875  0.533-  45 2.74  36 2.75  20 2.75  32 2.75  47 2.75  44 2.75  17 2.75  64 2.75
                            29 2.75  61 2.75  52 2.76  49 2.76
  49  1.000  1.000  0.598-  61 2.74  52 2.74  53 2.74  50 2.75  45 2.75  36 2.76  48 2.76  33 2.76

  50  1.000  0.250  0.598-  62 2.74  51 2.74  49 2.75  33 2.75  54 2.75  45 2.76  34 2.76  46 2.76

  51  1.000  0.500  0.598-  63 2.73  50 2.74  35 2.75  52 2.75  34 2.76  46 2.76  47 2.76  55 2.77

  52  1.000  0.750  0.598-  64 2.74  56 2.74  49 2.74  51 2.75  36 2.75  48 2.76  47 2.76  35 2.76

  53  0.250  1.000  0.598-  49 2.74  33 2.75  56 2.75  36 2.75  54 2.75  57 2.75  40 2.76  37 2.76

  54  0.250  0.250  0.600-  65 2.15  55 2.72  58 2.74  53 2.75  50 2.75  33 2.78  34 2.80  37 2.81
                            38 2.82
  55  0.251  0.498  0.601-  65 2.24  59 2.72  54 2.72  56 2.76  51 2.77  35 2.80  34 2.80  39 2.82
                            38 2.82
  56  0.249  0.749  0.599-  67 1.79  52 2.74  53 2.75  55 2.76  35 2.76  36 2.77  60 2.77  40 2.78
                            39 2.79
  57  0.500  0.000  0.598-  61 2.74  41 2.74  60 2.75  53 2.75  58 2.76  44 2.76  40 2.76  37 2.76

  58  0.500  0.251  0.600-  65 2.15  59 2.73  54 2.74  57 2.76  62 2.76  41 2.78  42 2.80  37 2.81
                            38 2.82
  59  0.499  0.499  0.601-  65 2.25  55 2.72  58 2.73  60 2.75  63 2.76  43 2.79  42 2.80  39 2.82
                            38 2.83
  60  0.501  0.750  0.599-  67 1.80  64 2.74  57 2.75  59 2.75  43 2.76  44 2.76  56 2.77  40 2.78
                            39 2.79
  61  0.750  1.000  0.598-  49 2.74  57 2.74  64 2.74  62 2.75  45 2.75  44 2.75  48 2.75  41 2.76

  62  0.750  0.250  0.598-  50 2.74  63 2.74  41 2.74  61 2.75  42 2.75  45 2.75  46 2.76  58 2.76

  63  0.751  0.500  0.598-  51 2.73  62 2.74  43 2.75  64 2.75  42 2.76  46 2.76  47 2.76  59 2.76

  64  0.751  0.750  0.598-  52 2.74  60 2.74  61 2.74  63 2.75  48 2.75  44 2.75  47 2.75  43 2.76

  65  0.375  0.367  0.635-  66 1.22  54 2.15  58 2.15  55 2.24  59 2.25
  66  0.374  0.367  0.676-  65 1.22
  67  0.375  0.656  0.615-  56 1.79  60 1.80
 
  LATTYP: Found a simple tetragonal cell.
 ALAT       =    10.9820000000
 C/A-ratio  =     2.7317428519
  
  Lattice vectors:
  
 A1 = (  10.9820000000,   0.0000000000,   0.0000000000)
 A2 = (   0.0000000000,  10.9820000000,   0.0000000000)
 A3 = (   0.0000000000,   0.0000000000,  30.0000000000)


Analysis of symmetry for initial positions (statically):
=====================================================================
 Subroutine PRICEL returns:
 Original cell was already a primitive cell.
 

 Routine SETGRP: Setting up the symmetry group for a 
 simple tetragonal supercell.


 Subroutine GETGRP returns: Found  1 space group operations
 (whereof  1 operations were pure point group operations)
 out of a pool of 16 trial point group operations.


The static configuration has the point symmetry C_1 .


Analysis of symmetry for dynamics (positions and initial velocities):
=====================================================================
 Subroutine PRICEL returns:
 Original cell was already a primitive cell.
 

 Routine SETGRP: Setting up the symmetry group for a 
 simple tetragonal supercell.


 Subroutine GETGRP returns: Found  1 space group operations
 (whereof  1 operations were pure point group operations)
 out of a pool of 16 trial point group operations.


The dynamic configuration has the point symmetry C_1 .


Analysis of constrained symmetry for selective dynamics:
=====================================================================
 Subroutine PRICEL returns:
 Original cell was already a primitive cell.
 

 Routine SETGRP: Setting up the symmetry group for a 
 simple tetragonal supercell.


 Subroutine GETGRP returns: Found  1 space group operations
 (whereof  1 operations were pure point group operations)
 out of a pool of 16 trial point group operations.


The constrained configuration has the point symmetry C_1 .


Analysis of structural, dynamic, and magnetic symmetry:
=====================================================================
 Subroutine PRICEL returns:
 Original cell was already a primitive cell.
 

 Routine SETGRP: Setting up the symmetry group for a 
 simple tetragonal supercell.


 Subroutine GETGRP returns: Found  1 space group operations
 (whereof  1 operations were pure point group operations)
 out of a pool of 16 trial point group operations.


The magnetic configuration has the point symmetry C_1 .


 Subroutine INISYM returns: Found  1 space group operations
 (whereof  1 operations are pure point group operations),
 and found     1 'primitive' translations

 
 
 KPOINTS: K-Point Grid                            

Automatic generation of k-mesh.
Space group operators:
 irot       det(A)        alpha          n_x          n_y          n_z        tau_x        tau_y        tau_z
    1     1.000000     0.000001     1.000000     0.000000     0.000000     0.000000     0.000000     0.000000
 
 Subroutine IBZKPT returns following result:
 ===========================================
 
 Found      8 irreducible k-points:
 
 Following reciprocal coordinates:
            Coordinates               Weight
  0.125000  0.125000  0.000000      2.000000
  0.375000  0.125000  0.000000      2.000000
 -0.375000  0.125000  0.000000      2.000000
 -0.125000  0.125000  0.000000      2.000000
  0.125000  0.375000  0.000000      2.000000
  0.375000  0.375000  0.000000      2.000000
 -0.375000  0.375000  0.000000      2.000000
 -0.125000  0.375000  0.000000      2.000000
 
 Following cartesian coordinates:
            Coordinates               Weight
  0.011382  0.011382  0.000000      2.000000
  0.034147  0.011382  0.000000      2.000000
 -0.034147  0.011382  0.000000      2.000000
 -0.011382  0.011382  0.000000      2.000000
  0.011382  0.034147  0.000000      2.000000
  0.034147  0.034147  0.000000      2.000000
 -0.034147  0.034147  0.000000      2.000000
 -0.011382  0.034147  0.000000      2.000000
 


--------------------------------------------------------------------------------------------------------




 Dimension of arrays:
   k-points           NKPTS =      8   k-points in BZ     NKDIM =      8   number of bands    NBANDS=    480
   number of dos      NEDOS =   1200   number of ions     NIONS =     67
   non local maximal  LDIM  =      6   non local SUM 2l+1 LMDIM =     18
   total plane-waves  NPLWV = ******
   max r-space proj   IRMAX =   5807   max aug-charges    IRDMAX=  13820
   dimension x,y,z NGX =    72 NGY =   72 NGZ =  196
   dimension x,y,z NGXF=   144 NGYF=  144 NGZF=  392
   support grid    NGXF=   144 NGYF=  144 NGZF=  392
   ions per type =              64   1   1   1
   NGX,Y,Z   is equivalent  to a cutoff of  10.90, 10.90, 10.86 a.u.
   NGXF,Y,Z  is equivalent  to a cutoff of  21.80, 21.80, 21.72 a.u.

 SYSTEM =  Pd_100_surface                          
 POSCAR =  Pd N O H                                

 Startparameter for this run:
   NWRITE =      2    write-flag & timer
   PREC   = accura    normal or accurate (medium, high low for compatibility)
   ISTART =      0    job   : 0-new  1-cont  2-samecut
   ICHARG =      2    charge: 1-file 2-atom 10-const
   ISPIN  =      2    spin polarized calculation?
   LNONCOLLINEAR =      F non collinear calculations
   LSORBIT =      F    spin-orbit coupling
   INIWAV =      1    electr: 0-lowe 1-rand  2-diag
   LASPH  =      F    aspherical Exc in radial PAW
   METAGGA=      F    non-selfconsistent MetaGGA calc.

 Electronic Relaxation 1
   ENCUT  =  400.0 eV  29.40 Ry    5.42 a.u.  17.91 17.91 48.92*2*pi/ulx,y,z
   ENINI  =  400.0     initial cutoff
   ENAUG  =  627.1 eV  augmentation charge cutoff
   NELM   =    100;   NELMIN=  2; NELMDL=  0     # of ELM steps 
   EDIFF  = 0.1E-04   stopping-criterion for ELM
   LREAL  =      T    real-space projection
   NLSPLINE    = F    spline interpolate recip. space projectors
   LCOMPAT=      F    compatible to vasp.4.4
   GGA_COMPAT  = T    GGA compatible to vasp.4.4-vasp.4.6
   LMAXPAW     = -100 max onsite density
   LMAXMIX     =    2 max onsite mixed and CHGCAR
   VOSKOWN=      0    Vosko Wilk Nusair interpolation
   ROPT   =   -0.00025  -0.00025  -0.00025  -0.00025
 Ionic relaxation
   EDIFFG = -.2E-01   stopping-criterion for IOM
   NSW    =    100    number of steps for IOM
   NBLOCK =      1;   KBLOCK =    100    inner block; outer block 
   IBRION =      2    ionic relax: 0-MD 1-quasi-New 2-CG
   NFREE  =      1    steps in history (QN), initial steepest desc. (CG)
   ISIF   =      2    stress and relaxation
   IWAVPR =     11    prediction:  0-non 1-charg 2-wave 3-comb
   ISYM   =      2    0-nonsym 1-usesym 2-fastsym
   LCORR  =      T    Harris-Foulkes like correction to forces

   POTIM  = 0.5000    time-step for ionic-motion
   TEIN   =    0.0    initial temperature
   TEBEG  =    0.0;   TEEND  =   0.0 temperature during run
   SMASS  =  -3.00    Nose mass-parameter (am)
   estimated Nose-frequenzy (Omega)   =  0.10E-29 period in steps =****** mass=  -0.276E-26a.u.
   SCALEE = 1.0000    scale energy and forces
   NPACO  =    256;   APACO  = 16.0  distance and # of slots for P.C.
   PSTRESS=    0.0 pullay stress

  Mass of Ions in am
   POMASS = 106.42 14.00 16.00  1.00
  Ionic Valenz
   ZVAL   =  10.00  5.00  6.00  1.00
  Atomic Wigner-Seitz radii
   RWIGS  =  -1.00 -1.00 -1.00 -1.00
  virtual crystal weights 
   VCA    =   1.00  1.00  1.00  1.00
   NELECT =     652.0000    total number of electrons
   NUPDOWN=      -1.0000    fix difference up-down

 DOS related values:
   EMIN   =  10.00;   EMAX   =-10.00  energy-range for DOS
   EFERMI =   0.00
   ISMEAR =     1;   SIGMA  =   0.20  broadening in eV -4-tet -1-fermi 0-gaus

 Electronic relaxation 2 (details)
   IALGO  =     68    algorithm
   LDIAG  =      T    sub-space diagonalisation (order eigenvalues)
   LSUBROT=      F    optimize rotation matrix (better conditioning)
   TURBO    =      0    0=normal 1=particle mesh
   IRESTART =      0    0=no restart 2=restart with 2 vectors
   NREBOOT  =      0    no. of reboots
   NMIN     =      0    reboot dimension
   EREF     =   0.00    reference energy to select bands
   IMIX   =      4    mixing-type and parameters
     AMIX     =   0.40;   BMIX     =  1.00
     AMIX_MAG =   1.60;   BMIX_MAG =  1.00
     AMIN     =   0.10
     WC   =   100.;   INIMIX=   1;  MIXPRE=   1;  MAXMIX= -45

 Intra band minimization:
   WEIMIN = 0.0010     energy-eigenvalue tresh-hold
   EBREAK =  0.52E-08  absolut break condition
   DEPER  =   0.30     relativ break condition  

   TIME   =   0.40     timestep for ELM

  volume/ion in A,a.u.               =      54.00       364.42
  Fermi-wavevector in a.u.,A,eV,Ry     =   0.924690  1.747410 11.633674  0.855051
  Thomas-Fermi vector in A             =   2.050463
 
 Write flags
   LWAVE        =      F    write WAVECAR
   LDOWNSAMPLE  =      F    k-point downsampling of WAVECAR
   LCHARG       =      F    write CHGCAR
   LVTOT        =      F    write LOCPOT, total local potential
   LVHAR        =      F    write LOCPOT, Hartree potential only
   LELF         =      F    write electronic localiz. function (ELF)
   LORBIT       =     11    0 simple, 1 ext, 2 COOP (PROOUT), +10 PAW based schemes


 Dipole corrections
   LMONO  =      F    monopole corrections only (constant potential shift)
   LDIPOL =      T    correct potential (dipole corrections)
   IDIPOL =      3    1-x, 2-y, 3-z, 4-all directions 
   EPSILON=  1.0000000 bulk dielectric constant

 Exchange correlation treatment:
   GGA     =    --    GGA type
   LEXCH   =     8    internal setting for exchange type
   VOSKOWN=      0    Vosko Wilk Nusair interpolation
   LHFCALC =     F    Hartree Fock is set to
   LHFONE  =     F    Hartree Fock one center treatment
   AEXX    =    0.0000 exact exchange contribution

 Linear response parameters
   LEPSILON=     F    determine dielectric tensor
   LRPA    =     F    only Hartree local field effects (RPA)
   LNABLA  =     F    use nabla operator in PAW spheres
   LVEL    =     F    velocity operator in full k-point grid
   LINTERFAST=   F  fast interpolation
   KINTER  =     0    interpolate to denser k-point grid
   CSHIFT  =0.1000    complex shift for real part using Kramers Kronig
   OMEGAMAX=  -1.0    maximum frequency
   DEG_THRESHOLD= 0.2000000E-02 threshold for treating states as degnerate
   RTIME   =   -0.100 relaxation time in fs
  (WPLASMAI=    0.000 imaginary part of plasma frequency in eV, 0.658/RTIME)
   DFIELD  = 0.0000000 0.0000000 0.0000000 field for delta impulse in time
 
 Orbital magnetization related:
   ORBITALMAG=     F  switch on orbital magnetization
   LCHIMAG   =     F  perturbation theory with respect to B field
   DQ        =  0.001000  dq finite difference perturbation B field
   LLRAUG    =     F  two centre corrections for induced B field



--------------------------------------------------------------------------------------------------------


 conjugate gradient relaxation of ions
   using selective dynamics as specified on POSCAR
 charge density and potential will be updated during run
 spin polarized calculation
 RMM-DIIS sequential band-by-band and
  variant of blocked Davidson during initial phase
 perform sub-space diagonalisation
    before iterative eigenvector-optimisation
 modified Broyden-mixing scheme, WC =      100.0
 initial mixing is a Kerker type mixing with AMIX =  0.4000 and BMIX =      1.0000
 Hartree-type preconditioning will be used
 using additional bands          154
 real space projection scheme for non local part
 use partial core corrections
 calculate Harris-corrections to forces 
   (improved forces if not selfconsistent)
 use gradient corrections 
 use of overlap-Matrix (Vanderbilt PP)
 Methfessel and Paxton  Order N= 1 SIGMA  =   0.20


--------------------------------------------------------------------------------------------------------


  energy-cutoff  :      400.00
  volume of cell :     3618.13
      direct lattice vectors                 reciprocal lattice vectors
    10.982000000  0.000000000  0.000000000     0.091058095  0.000000000  0.000000000
     0.000000000 10.982000000  0.000000000     0.000000000  0.091058095  0.000000000
     0.000000000  0.000000000 30.000000000     0.000000000  0.000000000  0.033333333

  length of vectors
    10.982000000 10.982000000 30.000000000     0.091058095  0.091058095  0.033333333


 
 k-points in units of 2pi/SCALE and weight: K-Point Grid                            
   0.01138226  0.01138226  0.00000000       0.125
   0.03414679  0.01138226  0.00000000       0.125
  -0.03414679  0.01138226  0.00000000       0.125
  -0.01138226  0.01138226  0.00000000       0.125
   0.01138226  0.03414679  0.00000000       0.125
   0.03414679  0.03414679  0.00000000       0.125
  -0.03414679  0.03414679  0.00000000       0.125
  -0.01138226  0.03414679  0.00000000       0.125
 
 k-points in reciprocal lattice and weights: K-Point Grid                            
   0.12500000  0.12500000  0.00000000       0.125
   0.37500000  0.12500000  0.00000000       0.125
  -0.37500000  0.12500000  0.00000000       0.125
  -0.12500000  0.12500000  0.00000000       0.125
   0.12500000  0.37500000  0.00000000       0.125
   0.37500000  0.37500000  0.00000000       0.125
  -0.37500000  0.37500000  0.00000000       0.125
  -0.12500000  0.37500000  0.00000000       0.125
 
 position of ions in fractional coordinates (direct lattice) 
   0.12499955  0.12499955  0.40293227
   0.12499955  0.37499864  0.40293227
   0.12499955  0.62499774  0.40293227
   0.12499955  0.87499683  0.40293227
   0.37499864  0.12499955  0.40293227
   0.37499864  0.37499864  0.40293227
   0.37499864  0.62499774  0.40293227
   0.37499864  0.87499683  0.40293227
   0.62499774  0.12499955  0.40293227
   0.62499774  0.37499864  0.40293227
   0.62499774  0.62499774  0.40293227
   0.62499774  0.87499683  0.40293227
   0.87499683  0.12499955  0.40293227
   0.87499683  0.37499864  0.40293227
   0.87499683  0.62499774  0.40293227
   0.87499683  0.87499683  0.40293227
   0.99995552  0.00011001  0.46792561
   0.00011630  0.24966213  0.46815798
   0.00009971  0.50006570  0.46794949
   0.00025176  0.75018475  0.46815440
   0.24951233  0.99979378  0.46806958
   0.24962390  0.24952029  0.46803453
   0.24968986  0.50002070  0.46799777
   0.24979725  0.74989728  0.46825905
   0.50046387  0.99985568  0.46798157
   0.50034164  0.24965451  0.46800679
   0.50035081  0.50004456  0.46794493
   0.50036961  0.74989736  0.46814525
   0.75012382  0.00008714  0.46794881
   0.74992909  0.24963196  0.46822007
   0.75001459  0.49999154  0.46795711
   0.75002573  0.75011595  0.46817972
   0.12619027  0.12601634  0.53370147
   0.12481031  0.37518475  0.53315428
   0.12571048  0.62359052  0.53364393
   0.12527441  0.87477339  0.53331608
   0.37506087  0.12419003  0.53292813
   0.37498594  0.37435951  0.53176767
   0.37513635  0.62486974  0.53255250
   0.37519989  0.87522296  0.53317692
   0.62374539  0.12605751  0.53363707
   0.62501529  0.37530500  0.53314548
   0.62445444  0.62373020  0.53353514
   0.62478297  0.87487855  0.53320503
   0.87515913  0.12478932  0.53300558
   0.87505342  0.37503017  0.53289513
   0.87518724  0.62486564  0.53296423
   0.87516100  0.87514603  0.53297824
   0.99976030  0.99996182  0.59830496
   0.99959808  0.25001630  0.59835923
   0.99954388  0.49963806  0.59843499
   0.99965962  0.75009943  0.59826505
   0.24970497  0.99983327  0.59847472
   0.25034262  0.25041895  0.60022699
   0.25139903  0.49836663  0.60055104
   0.24930706  0.74929432  0.59908741
   0.50042553  0.00012024  0.59848896
   0.49950409  0.25095185  0.60028989
   0.49923120  0.49910904  0.60057578
   0.50134004  0.74972718  0.59913058
   0.75026774  0.99997878  0.59819679
   0.75033143  0.25002340  0.59813809
   0.75053992  0.49974364  0.59841007
   0.75057005  0.75009952  0.59808158
   0.37458583  0.36693099  0.63549773
   0.37428882  0.36655594  0.67619090
   0.37517769  0.65571957  0.61545709
 
 position of ions in cartesian coordinates  (Angst):
   1.37274503  1.37274503 12.08796804
   1.37274503  4.11823509 12.08796804
   1.37274503  6.86372514 12.08796804
   1.37274503  9.60921520 12.08796804
   4.11823509  1.37274503 12.08796804
   4.11823509  4.11823509 12.08796804
   4.11823509  6.86372514 12.08796804
   4.11823509  9.60921520 12.08796804
   6.86372514  1.37274503 12.08796804
   6.86372514  4.11823509 12.08796804
   6.86372514  6.86372514 12.08796804
   6.86372514  9.60921520 12.08796804
   9.60921520  1.37274503 12.08796804
   9.60921520  4.11823509 12.08796804
   9.60921520  6.86372514 12.08796804
   9.60921520  9.60921520 12.08796804
  10.98151156  0.00120811 14.03776832
   0.00127720  2.74178956 14.04473946
   0.00109503  5.49172151 14.03848467
   0.00276480  8.23852896 14.04463199
   2.74014440 10.97973527 14.04208731
   2.74136969  2.74023186 14.04103596
   2.74209407  5.49122733 14.03993319
   2.74327341  8.23537191 14.04777136
   5.49609425 10.98041505 14.03944705
   5.49475193  2.74170580 14.04020376
   5.49485264  5.49148941 14.03834798
   5.49505907  8.23537277 14.04435736
   8.23785983  0.00095701 14.03846437
   8.23572128  2.74145815 14.04660211
   8.23666024  5.49090709 14.03871333
   8.23678261  8.23777342 14.04539175
   1.38582151  1.38391143 16.01104421
   1.37066679  4.12027897 15.99462842
   1.38055250  6.84827114 16.00931783
   1.37576359  9.60676136 15.99948239
   4.11891846  1.36385490 15.98784391
   4.11809554  4.11121615 15.95303011
   4.11974736  6.86231950 15.97657509
   4.12044519  9.61169859 15.99530767
   6.84997192  1.38436361 16.00911203
   6.86391789  4.12159954 15.99436448
   6.85775866  6.84980508 16.00605417
   6.86136662  9.60791625 15.99615078
   9.61099761  1.37043627 15.99016728
   9.60983669  4.11858136 15.98685400
   9.61130629  6.86227449 15.98892704
   9.61101809  9.61085367 15.98934726
  10.97936765 10.98158067 17.94914882
  10.97758617  2.74567899 17.95077690
  10.97699092  5.48702514 17.95304959
  10.97826196  8.23759192 17.94795151
   2.74225998 10.98016893 17.95424164
   2.74926261  2.75010092 18.00680980
   2.76086420  5.47306238 18.01653106
   2.73789009  8.22875021 17.97262221
   5.49567321  0.00132042 17.95466891
   5.48555394  2.75595324 18.00869684
   5.48255700  5.48121545 18.01727339
   5.50571636  8.23350385 17.97391734
   8.23944033 10.98176694 17.94590383
   8.24013982  2.74575703 17.94414261
   8.24242940  5.48818461 17.95230217
   8.24276032  8.23759297 17.94244749
   4.11370155  4.02963613 19.06493177
   4.11043983  4.02551730 20.28572702
   4.12020136  7.20111237 18.46371268
 


--------------------------------------------------------------------------------------------------------


 k-point  1 :   0.1250 0.1250 0.0000  plane waves:   65671
 k-point  2 :   0.3750 0.1250 0.0000  plane waves:   65719
 k-point  3 :  -0.3750 0.1250 0.0000  plane waves:   65719
 k-point  4 :  -0.1250 0.1250 0.0000  plane waves:   65671
 k-point  5 :   0.1250 0.3750 0.0000  plane waves:   65719
 k-point  6 :   0.3750 0.3750 0.0000  plane waves:   65776
 k-point  7 :  -0.3750 0.3750 0.0000  plane waves:   65776
 k-point  8 :  -0.1250 0.3750 0.0000  plane waves:   65719

 maximum and minimum number of plane-waves per node :     65776    65671

 maximum number of plane-waves:     65776
 maximum index in each direction: 
   IXMAX=   18   IYMAX=   17   IZMAX=   48
   IXMIN=  -18   IYMIN=  -18   IZMIN=  -48


 serial   3D FFT for wavefunctions
 parallel 3D FFT for charge:
    minimum data exchange during FFTs selected (reduces bandwidth)


 total amount of memory used by VASP MPI-rank0   268772. kBytes
=======================================================================

   base      :      30000. kBytes
   nonlr-proj:      50782. kBytes
   fftplans  :       7679. kBytes
   grid      :      92335. kBytes
   one-center:       2083. kBytes
   wavefun   :      85893. kBytes
 
     INWAV:  cpu time    0.0001: real time    0.0004
 Broyden mixing: mesh for mixing (old mesh)
   NGX = 35   NGY = 35   NGZ = 97
  (NGX  =144   NGY  =144   NGZ  =392)
  gives a total of 118825 points

 initial charge density was supplied:
 charge density of overlapping atoms calculated
 number of electron     652.0000000 magnetization      67.0000000
 keeping initial charge density in first step


--------------------------------------------------------------------------------------------------------


 Maximum index for non-local projection operator         5573
 Maximum index for augmentation-charges          679 (set IRDMAX)


--------------------------------------------------------------------------------------------------------


 First call to EWALD:  gamma=   0.115
 Maximum number of real-space cells 4x 4x 2
 Maximum number of reciprocal cells 2x 2x 5

    FEWALD:  cpu time    0.0221: real time    0.0188


--------------------------------------- Iteration      1(   1)  ---------------------------------------


    POTLOK:  cpu time    0.4519: real time   22.1937
    SETDIJ:  cpu time    0.1589: real time    0.1043
     EDDAV:  cpu time   65.8385: real time   33.2500
       DOS:  cpu time    0.1761: real time    0.1718
    --------------------------------------------
      LOOP:  cpu time   66.6254: real time   55.7198

 eigenvalue-minimisations  : 15360
 total energy-change (2. order) : 0.3619990E+04  (-0.2420677E+05)
 number of electron     652.0000000 magnetization      67.0000000
 augmentation part      652.0000000 magnetization      67.0000000

 DIPCOR: dipole corrections for dipol
 direction  3 min pos     1,
 dipolmoment           0.000000      0.000000     -0.000063 electrons x Angstroem
 Tr[quadrupol]    -13572.636252

 energy correction for charged system         0.000000 eV
 dipol+quadrupol energy correction           -0.000000 eV
 added-field ion interaction          0.000221 eV  (added to PSCEN)


 Free energy of the ion-electron system (eV)
  ---------------------------------------------------
  alpha Z        PSCENC =       760.16366879
  Ewald energy   TEWEN  =    382215.60290348
  -Hartree energ DENC   =   -435161.23852620
  -exchange      EXHF   =         0.00000000
  -V(xc)+E(xc)   XCENC  =     -1828.38637672
  PAW double counting   =     52178.46402774   -48199.64973638
  entropy T*S    EENTRO =        -0.00602516
  eigenvalues    EBANDS =      1122.21364201
  atomic energy  EATOM  =     52532.82595619
  Solvation  Ediel_sol  =         0.00000000
  ---------------------------------------------------
  free energy    TOTEN  =      3619.98953373 eV

  energy without entropy =     3619.99555890  energy(sigma->0) =     3619.99154212


--------------------------------------------------------------------------------------------------------




--------------------------------------- Iteration      1(   2)  ---------------------------------------


     EDDAV:  cpu time   78.1567: real time   39.2136
       DOS:  cpu time    0.0043: real time    0.0021
    --------------------------------------------
      LOOP:  cpu time   78.1610: real time   39.2158

 eigenvalue-minimisations  : 17856
 total energy-change (2. order) :-0.3791596E+04  (-0.3568907E+04)
 number of electron     652.0000000 magnetization      67.0000000
 augmentation part      652.0000000 magnetization      67.0000000

 DIPCOR: dipole corrections for dipol
 direction  3 min pos     1,
 dipolmoment           0.000000      0.000000     -0.000063 electrons x Angstroem
 Tr[quadrupol]    -13572.636252

 energy correction for charged system         0.000000 eV
 dipol+quadrupol energy correction           -0.000000 eV
 added-field ion interaction          0.000221 eV  (added to PSCEN)


 Free energy of the ion-electron system (eV)
  ---------------------------------------------------
  alpha Z        PSCENC =       760.16366879
  Ewald energy   TEWEN  =    382215.60290348
  -Hartree energ DENC   =   -435161.23852620
  -exchange      EXHF   =         0.00000000
  -V(xc)+E(xc)   XCENC  =     -1828.38637672
  PAW double counting   =     52178.46402774   -48199.64973638
  entropy T*S    EENTRO =         0.02095842
  eigenvalues    EBANDS =     -2669.40899013
  atomic energy  EATOM  =     52532.82595619
  Solvation  Ediel_sol  =         0.00000000
  ---------------------------------------------------
  free energy    TOTEN  =      -171.60611482 eV

  energy without entropy =     -171.62707324  energy(sigma->0) =     -171.61310096


--------------------------------------------------------------------------------------------------------




--------------------------------------- Iteration      1(   3)  ---------------------------------------


     EDDAV:  cpu time   83.6642: real time   41.9341
       DOS:  cpu time    0.0041: real time    0.0020
    --------------------------------------------
      LOOP:  cpu time   83.6683: real time   41.9362

 eigenvalue-minimisations  : 19296
 total energy-change (2. order) :-0.1658418E+03  (-0.1608699E+03)
 number of electron     652.0000000 magnetization      67.0000000
 augmentation part      652.0000000 magnetization      67.0000000

 DIPCOR: dipole corrections for dipol
 direction  3 min pos     1,
 dipolmoment           0.000000      0.000000     -0.000063 electrons x Angstroem
 Tr[quadrupol]    -13572.636252

 energy correction for charged system         0.000000 eV
 dipol+quadrupol energy correction           -0.000000 eV
 added-field ion interaction          0.000221 eV  (added to PSCEN)


 Free energy of the ion-electron system (eV)
  ---------------------------------------------------
  alpha Z        PSCENC =       760.16366879
  Ewald energy   TEWEN  =    382215.60290348
  -Hartree energ DENC   =   -435161.23852620
  -exchange      EXHF   =         0.00000000
  -V(xc)+E(xc)   XCENC  =     -1828.38637672
  PAW double counting   =     52178.46402774   -48199.64973638
  entropy T*S    EENTRO =         0.15452484
  eigenvalues    EBANDS =     -2835.38435205
  atomic energy  EATOM  =     52532.82595619
  Solvation  Ediel_sol  =         0.00000000
  ---------------------------------------------------
  free energy    TOTEN  =      -337.44791032 eV

  energy without entropy =     -337.60243516  energy(sigma->0) =     -337.49941860


--------------------------------------------------------------------------------------------------------




--------------------------------------- Iteration      1(   4)  ---------------------------------------


     EDDAV:  cpu time   72.1422: real time   36.1836
       DOS:  cpu time    0.0040: real time    0.0020
    --------------------------------------------
      LOOP:  cpu time   72.1461: real time   36.1856

 eigenvalue-minimisations  : 16896
 total energy-change (2. order) :-0.2604921E+01  (-0.2601447E+01)
 number of electron     652.0000000 magnetization      67.0000000
 augmentation part      652.0000000 magnetization      67.0000000

 DIPCOR: dipole corrections for dipol
 direction  3 min pos     1,
 dipolmoment           0.000000      0.000000     -0.000063 electrons x Angstroem
 Tr[quadrupol]    -13572.636252

 energy correction for charged system         0.000000 eV
 dipol+quadrupol energy correction           -0.000000 eV
 added-field ion interaction          0.000221 eV  (added to PSCEN)


 Free energy of the ion-electron system (eV)
  ---------------------------------------------------
  alpha Z        PSCENC =       760.16366879
  Ewald energy   TEWEN  =    382215.60290348
  -Hartree energ DENC   =   -435161.23852620
  -exchange      EXHF   =         0.00000000
  -V(xc)+E(xc)   XCENC  =     -1828.38637672
  PAW double counting   =     52178.46402774   -48199.64973638
  entropy T*S    EENTRO =         0.15586975
  eigenvalues    EBANDS =     -2837.99061816
  atomic energy  EATOM  =     52532.82595619
  Solvation  Ediel_sol  =         0.00000000
  ---------------------------------------------------
  free energy    TOTEN  =      -340.05283153 eV

  energy without entropy =     -340.20870127  energy(sigma->0) =     -340.10478811


--------------------------------------------------------------------------------------------------------




--------------------------------------- Iteration      1(   5)  ---------------------------------------


     EDDAV:  cpu time   98.4631: real time   49.3535
       DOS:  cpu time    0.0040: real time    0.0020
    CHARGE:  cpu time    2.1141: real time    1.8423
    MIXING:  cpu time    0.0449: real time    0.0368
    --------------------------------------------
      LOOP:  cpu time  100.6262: real time   51.2346

 eigenvalue-minimisations  : 22464
 total energy-change (2. order) :-0.1279421E+00  (-0.1279371E+00)
 number of electron     651.9999424 magnetization      64.6090910
 augmentation part      260.2682402 magnetization      50.7729125

 DIPCOR: dipole corrections for dipol
 direction  3 min pos     1,
 dipolmoment           0.000000      0.000000     -0.000063 electrons x Angstroem
 Tr[quadrupol]    -13572.636252

 energy correction for charged system         0.000000 eV
 dipol+quadrupol energy correction           -0.000000 eV
 added-field ion interaction          0.000221 eV  (added to PSCEN)


 Broyden mixing:
  rms(total) = 0.57910E+01    rms(broyden)= 0.57904E+01
  rms(prec ) = 0.58441E+01
  weight for this iteration     100.00

 Free energy of the ion-electron system (eV)
  ---------------------------------------------------
  alpha Z        PSCENC =       760.16366879
  Ewald energy   TEWEN  =    382215.60290348
  -Hartree energ DENC   =   -435161.23852620
  -exchange      EXHF   =         0.00000000
  -V(xc)+E(xc)   XCENC  =     -1828.38637672
  PAW double counting   =     52178.46402774   -48199.64973638
  entropy T*S    EENTRO =         0.15588519
  eigenvalues    EBANDS =     -2838.11857567
  atomic energy  EATOM  =     52532.82595619
  Solvation  Ediel_sol  =         0.00000000
  ---------------------------------------------------
  free energy    TOTEN  =      -340.18077360 eV

  energy without entropy =     -340.33665879  energy(sigma->0) =     -340.23273533


--------------------------------------------------------------------------------------------------------




--------------------------------------- Iteration      1(   6)  ---------------------------------------


    POTLOK:  cpu time    0.3324: real time    0.2462
    SETDIJ:  cpu time    0.0193: real time    0.0124
    EDDIAG:  cpu time   11.6435: real time    5.8549
  RMM-DIIS:  cpu time   30.0540: real time   15.2090
    ORTHCH:  cpu time    2.6955: real time    1.3533
       DOS:  cpu time    0.0038: real time    0.0019
    CHARGE:  cpu time    2.2354: real time    1.9492
    MIXING:  cpu time    0.0247: real time    0.0206
    --------------------------------------------
      LOOP:  cpu time   47.0087: real time   24.6474

 eigenvalue-minimisations  : 15391
 total energy-change (2. order) : 0.2460344E+02  (-0.5983674E+01)
 number of electron     651.9999400 magnetization      61.6725712
 augmentation part      271.0542626 magnetization      46.4411776

 DIPCOR: dipole corrections for dipol
 direction  3 min pos     1,
 dipolmoment           0.000000      0.000000      0.101710 electrons x Angstroem
 Tr[quadrupol]    -13577.484958

 energy correction for charged system         0.000000 eV
 dipol+quadrupol energy correction           -0.000259 eV
 added-field ion interaction         -0.356301 eV  (added to PSCEN)


 Broyden mixing:
  rms(total) = 0.32887E+01    rms(broyden)= 0.32878E+01
  rms(prec ) = 0.33391E+01
  weight for this iteration     100.00

 eigenvalues of (default mixing * dielectric matrix)
  average eigenvalue GAMMA=   1.0513
  1.0513

 Free energy of the ion-electron system (eV)
  ---------------------------------------------------
  alpha Z        PSCENC =       759.80688863
  Ewald energy   TEWEN  =    382215.60290348
  -Hartree energ DENC   =   -434951.07383714
  -exchange      EXHF   =         0.00000000
  -V(xc)+E(xc)   XCENC  =     -1832.70897455
  PAW double counting   =     55959.80852816   -52057.31959303
  entropy T*S    EENTRO =         0.09588288
  eigenvalues    EBANDS =     -2942.61508499
  atomic energy  EATOM  =     52532.82595619
  Solvation  Ediel_sol  =         0.00000000
  ---------------------------------------------------
  free energy    TOTEN  =      -315.57733036 eV

  energy without entropy =     -315.67321324  energy(sigma->0) =     -315.60929132


--------------------------------------------------------------------------------------------------------




--------------------------------------- Iteration      1(   7)  ---------------------------------------


    POTLOK:  cpu time    0.4069: real time    0.2595
    SETDIJ:  cpu time    0.0194: real time    0.0126
    EDDIAG:  cpu time   11.6660: real time    5.8471
  RMM-DIIS:  cpu time   29.8693: real time   15.1048
    ORTHCH:  cpu time    2.7356: real time    1.3732
       DOS:  cpu time    0.0038: real time    0.0019
    CHARGE:  cpu time    2.1802: real time    1.8955
    MIXING:  cpu time    0.0058: real time    0.0029
    --------------------------------------------
      LOOP:  cpu time   46.8872: real time   24.4976

 eigenvalue-minimisations  : 15394
 total energy-change (2. order) :-0.1855269E+01  (-0.2774118E+01)
 number of electron     651.9999387 magnetization      60.1534980
 augmentation part      269.1816856 magnetization      46.9493731

 DIPCOR: dipole corrections for dipol
 direction  3 min pos     1,
 dipolmoment           0.000000      0.000000      0.233561 electrons x Angstroem
 Tr[quadrupol]    -13587.656275

 energy correction for charged system         0.000000 eV
 dipol+quadrupol energy correction           -0.001364 eV
 added-field ion interaction         -0.818190 eV  (added to PSCEN)


 Broyden mixing:
  rms(total) = 0.45705E+01    rms(broyden)= 0.45691E+01
  rms(prec ) = 0.52643E+01
  weight for this iteration     100.00

 eigenvalues of (default mixing * dielectric matrix)
  average eigenvalue GAMMA=   0.8474
  1.3326  0.3622

 Free energy of the ion-electron system (eV)
  ---------------------------------------------------
  alpha Z        PSCENC =       759.34389398
  Ewald energy   TEWEN  =    382215.60290348
  -Hartree energ DENC   =   -435332.72507704
  -exchange      EXHF   =         0.00000000
  -V(xc)+E(xc)   XCENC  =     -1825.51029080
  PAW double counting   =     58878.08568813   -55006.85392891
  entropy T*S    EENTRO =        -0.01038583
  eigenvalues    EBANDS =     -2538.19135904
  atomic energy  EATOM  =     52532.82595619
  Solvation  Ediel_sol  =         0.00000000
  ---------------------------------------------------
  free energy    TOTEN  =      -317.43259984 eV

  energy without entropy =     -317.42221401  energy(sigma->0) =     -317.42913790


--------------------------------------------------------------------------------------------------------




--------------------------------------- Iteration      1(   8)  ---------------------------------------


    POTLOK:  cpu time    0.4151: real time    0.2410
    SETDIJ:  cpu time    0.0187: real time    0.0122
    EDDIAG:  cpu time   11.8475: real time    5.9383
  RMM-DIIS:  cpu time   29.2629: real time   14.6674
    ORTHCH:  cpu time    2.7484: real time    1.3776
       DOS:  cpu time    0.0042: real time    0.0021
    CHARGE:  cpu time    2.4022: real time    2.1163
    MIXING:  cpu time    0.0069: real time    0.0035
    --------------------------------------------
      LOOP:  cpu time   46.7059: real time   24.3582

 eigenvalue-minimisations  : 15360
 total energy-change (2. order) :-0.1386061E+02  (-0.3040553E+01)
 number of electron     651.9999422 magnetization      58.7700413
 augmentation part      267.9459535 magnetization      43.8531127

 DIPCOR: dipole corrections for dipol
 direction  3 min pos     1,
 dipolmoment           0.000000      0.000000     -1.599535 electrons x Angstroem
 Tr[quadrupol]    -13588.468518

 energy correction for charged system         0.000000 eV
 dipol+quadrupol energy correction           -0.063979 eV
 added-field ion interaction          5.603359 eV  (added to PSCEN)


 Broyden mixing:
  rms(total) = 0.47601E+01    rms(broyden)= 0.47596E+01
  rms(prec ) = 0.61852E+01
  weight for this iteration     100.00

 eigenvalues of (default mixing * dielectric matrix)
  average eigenvalue GAMMA=   0.7706
  1.6226  0.5406  0.1485

 Free energy of the ion-electron system (eV)
  ---------------------------------------------------
  alpha Z        PSCENC =       765.70282880
  Ewald energy   TEWEN  =    382215.60290348
  -Hartree energ DENC   =   -435335.81691194
  -exchange      EXHF   =         0.00000000
  -V(xc)+E(xc)   XCENC  =     -1821.21019153
  PAW double counting   =     59844.07041560   -55985.16322865
  entropy T*S    EENTRO =        -0.09483427
  eigenvalues    EBANDS =     -2547.21014404
  atomic energy  EATOM  =     52532.82595619
  Solvation  Ediel_sol  =         0.00000000
  ---------------------------------------------------
  free energy    TOTEN  =      -331.29320637 eV

  energy without entropy =     -331.19837210  energy(sigma->0) =     -331.26159495


--------------------------------------------------------------------------------------------------------




--------------------------------------- Iteration      1(   9)  ---------------------------------------


    POTLOK:  cpu time    0.4160: real time    0.2404
    SETDIJ:  cpu time    0.0190: real time    0.0123
    EDDIAG:  cpu time   11.6667: real time    5.8476
  RMM-DIIS:  cpu time   29.6496: real time   14.8682
    ORTHCH:  cpu time    2.7026: real time    1.3565
       DOS:  cpu time    0.0040: real time    0.0020
    CHARGE:  cpu time    2.4457: real time    2.1568
    MIXING:  cpu time    0.0097: real time    0.0049
    --------------------------------------------
      LOOP:  cpu time   46.9134: real time   24.4886

 eigenvalue-minimisations  : 15368
 total energy-change (2. order) : 0.1536372E+02  (-0.1452100E+01)
 number of electron     651.9999374 magnetization      57.3042218
 augmentation part      269.8053200 magnetization      43.2995585

 DIPCOR: dipole corrections for dipol
 direction  3 min pos     1,
 dipolmoment           0.000000      0.000000      0.631757 electrons x Angstroem
 Tr[quadrupol]    -13589.330732

 energy correction for charged system         0.000000 eV
 dipol+quadrupol energy correction           -0.009980 eV
 added-field ion interaction         -2.213120 eV  (added to PSCEN)


 Broyden mixing:
  rms(total) = 0.48085E+01    rms(broyden)= 0.48076E+01
  rms(prec ) = 0.58697E+01
  weight for this iteration     100.00

 eigenvalues of (default mixing * dielectric matrix)
  average eigenvalue GAMMA=   0.7162
  1.9156  0.6518  0.1952  0.1021

 Free energy of the ion-electron system (eV)
  ---------------------------------------------------
  alpha Z        PSCENC =       757.94034731
  Ewald energy   TEWEN  =    382215.60290348
  -Hartree energ DENC   =   -435371.70091020
  -exchange      EXHF   =         0.00000000
  -V(xc)+E(xc)   XCENC  =     -1817.94560517
  PAW double counting   =     60549.67607673   -56701.93968662
  entropy T*S    EENTRO =        -0.02976914
  eigenvalues    EBANDS =     -2480.35879416
  atomic energy  EATOM  =     52532.82595619
  Solvation  Ediel_sol  =         0.00000000
  ---------------------------------------------------
  free energy    TOTEN  =      -315.92948158 eV

  energy without entropy =     -315.89971245  energy(sigma->0) =     -315.91955854


--------------------------------------------------------------------------------------------------------




--------------------------------------- Iteration      1(  10)  ---------------------------------------


    POTLOK:  cpu time    0.4003: real time    0.2306
    SETDIJ:  cpu time    0.0199: real time    0.0128
    EDDIAG:  cpu time   11.7301: real time    5.8794
  RMM-DIIS:  cpu time   30.0441: real time   15.2604
    ORTHCH:  cpu time    2.6970: real time    1.3539
       DOS:  cpu time    0.0040: real time    0.0020
    CHARGE:  cpu time    2.1229: real time    1.8378
    MIXING:  cpu time    0.0080: real time    0.0040
    --------------------------------------------
      LOOP:  cpu time   47.0261: real time   24.5807

 eigenvalue-minimisations  : 15387
 total energy-change (2. order) : 0.2466290E+02  (-0.8549053E+00)
 number of electron     651.9999395 magnetization      56.1572243
 augmentation part      271.3090529 magnetization      39.3088521

 DIPCOR: dipole corrections for dipol
 direction  3 min pos     1,
 dipolmoment           0.000000      0.000000     -0.155134 electrons x Angstroem
 Tr[quadrupol]    -13590.266747

 energy correction for charged system         0.000000 eV
 dipol+quadrupol energy correction           -0.000602 eV
 added-field ion interaction          0.543451 eV  (added to PSCEN)


 Broyden mixing:
  rms(total) = 0.22881E+01    rms(broyden)= 0.22873E+01
  rms(prec ) = 0.24852E+01
  weight for this iteration     100.00

 eigenvalues of (default mixing * dielectric matrix)
  average eigenvalue GAMMA=   0.6614
  2.0520  0.6722  0.2769  0.2072  0.0986

 Free energy of the ion-electron system (eV)
  ---------------------------------------------------
  alpha Z        PSCENC =       760.70629761
  Ewald energy   TEWEN  =    382215.60290348
  -Hartree energ DENC   =   -435401.64186912
  -exchange      EXHF   =         0.00000000
  -V(xc)+E(xc)   XCENC  =     -1814.75056515
  PAW double counting   =     61167.35179228   -57329.25575171
  entropy T*S    EENTRO =        -0.10036156
  eigenvalues    EBANDS =     -2422.00498505
  atomic energy  EATOM  =     52532.82595619
  Solvation  Ediel_sol  =         0.00000000
  ---------------------------------------------------
  free energy    TOTEN  =      -291.26658304 eV

  energy without entropy =     -291.16622148  energy(sigma->0) =     -291.23312919


--------------------------------------------------------------------------------------------------------




--------------------------------------- Iteration      1(  11)  ---------------------------------------


    POTLOK:  cpu time    0.3940: real time    0.2469
    SETDIJ:  cpu time    0.0190: real time    0.0124
    EDDIAG:  cpu time   11.8271: real time    5.9280
  RMM-DIIS:  cpu time   30.1804: real time   15.3682
    ORTHCH:  cpu time    2.7477: real time    1.3795
       DOS:  cpu time    0.0039: real time    0.0019
    CHARGE:  cpu time    1.9950: real time    1.7128
    MIXING:  cpu time    0.0076: real time    0.0038
    --------------------------------------------
      LOOP:  cpu time   47.1746: real time   24.6534

 eigenvalue-minimisations  : 15396
 total energy-change (2. order) : 0.4339109E+01  (-0.6961307E+00)
 number of electron     651.9999406 magnetization      54.4437033
 augmentation part      271.9272158 magnetization      38.5310933

 DIPCOR: dipole corrections for dipol
 direction  3 min pos     1,
 dipolmoment           0.000000      0.000000     -0.119122 electrons x Angstroem
 Tr[quadrupol]    -13589.411889

 energy correction for charged system         0.000000 eV
 dipol+quadrupol energy correction           -0.000355 eV
 added-field ion interaction          0.417299 eV  (added to PSCEN)


 Broyden mixing:
  rms(total) = 0.18477E+01    rms(broyden)= 0.18475E+01
  rms(prec ) = 0.20383E+01
  weight for this iteration     100.00

 eigenvalues of (default mixing * dielectric matrix)
  average eigenvalue GAMMA=   0.6428
  2.1533  0.7484  0.3436  0.3436  0.1681  0.0998

 Free energy of the ion-electron system (eV)
  ---------------------------------------------------
  alpha Z        PSCENC =       760.58039229
  Ewald energy   TEWEN  =    382215.60290348
  -Hartree energ DENC   =   -435366.33236683
  -exchange      EXHF   =         0.00000000
  -V(xc)+E(xc)   XCENC  =     -1814.57218433
  PAW double counting   =     61453.78994066   -57618.23073851
  entropy T*S    EENTRO =        -0.08118555
  eigenvalues    EBANDS =     -2450.51019097
  atomic energy  EATOM  =     52532.82595619
  Solvation  Ediel_sol  =         0.00000000
  ---------------------------------------------------
  free energy    TOTEN  =      -286.92747357 eV

  energy without entropy =     -286.84628803  energy(sigma->0) =     -286.90041173


--------------------------------------------------------------------------------------------------------




--------------------------------------- Iteration      1(  12)  ---------------------------------------


    POTLOK:  cpu time    0.3921: real time    0.2293
    SETDIJ:  cpu time    0.0190: real time    0.0124
    EDDIAG:  cpu time   11.6861: real time    5.8572
  RMM-DIIS:  cpu time   30.0642: real time   15.2832
    ORTHCH:  cpu time    2.7109: real time    1.3607
       DOS:  cpu time    0.0040: real time    0.0020
    CHARGE:  cpu time    2.2418: real time    1.9555
    MIXING:  cpu time    0.0078: real time    0.0039
    --------------------------------------------
      LOOP:  cpu time   47.1258: real time   24.7043

 eigenvalue-minimisations  : 15393
 total energy-change (2. order) :-0.2395842E+00  (-0.2667354E+00)
 number of electron     651.9999405 magnetization      53.4944702
 augmentation part      270.9674627 magnetization      37.2834905

 DIPCOR: dipole corrections for dipol
 direction  3 min pos     1,
 dipolmoment           0.000000      0.000000     -0.108385 electrons x Angstroem
 Tr[quadrupol]    -13591.731205

 energy correction for charged system         0.000000 eV
 dipol+quadrupol energy correction           -0.000294 eV
 added-field ion interaction          0.379686 eV  (added to PSCEN)


 Broyden mixing:
  rms(total) = 0.16309E+01    rms(broyden)= 0.16308E+01
  rms(prec ) = 0.17946E+01
  weight for this iteration     100.00

 eigenvalues of (default mixing * dielectric matrix)
  average eigenvalue GAMMA=   0.6065
  2.1735  0.7794  0.4127  0.4127  0.0995  0.1950  0.1732

 Free energy of the ion-electron system (eV)
  ---------------------------------------------------
  alpha Z        PSCENC =       760.54284042
  Ewald energy   TEWEN  =    382215.60290348
  -Hartree energ DENC   =   -435474.36007410
  -exchange      EXHF   =         0.00000000
  -V(xc)+E(xc)   XCENC  =     -1814.68843814
  PAW double counting   =     61772.78516837   -57938.25604808
  entropy T*S    EENTRO =        -0.06537958
  eigenvalues    EBANDS =     -2341.55398632
  atomic energy  EATOM  =     52532.82595619
  Solvation  Ediel_sol  =         0.00000000
  ---------------------------------------------------
  free energy    TOTEN  =      -287.16705776 eV

  energy without entropy =     -287.10167818  energy(sigma->0) =     -287.14526457


--------------------------------------------------------------------------------------------------------




--------------------------------------- Iteration      1(  13)  ---------------------------------------


    POTLOK:  cpu time    0.4189: real time    0.2563
    SETDIJ:  cpu time    0.0195: real time    0.0126
    EDDIAG:  cpu time   11.6530: real time    5.8413
  RMM-DIIS:  cpu time   30.1022: real time   15.3012
    ORTHCH:  cpu time    2.6909: real time    1.3506
       DOS:  cpu time    0.0039: real time    0.0019
    CHARGE:  cpu time    2.2270: real time    1.9411
    MIXING:  cpu time    0.0084: real time    0.0042
    --------------------------------------------
      LOOP:  cpu time   47.1237: real time   24.7094

 eigenvalue-minimisations  : 15401
 total energy-change (2. order) :-0.5163911E+00  (-0.1409271E+00)
 number of electron     651.9999403 magnetization      52.4297844
 augmentation part      270.6417663 magnetization      35.9504681

 DIPCOR: dipole corrections for dipol
 direction  3 min pos     1,
 dipolmoment           0.000000      0.000000      0.032632 electrons x Angstroem
 Tr[quadrupol]    -13592.834078

 energy correction for charged system         0.000000 eV
 dipol+quadrupol energy correction           -0.000027 eV
 added-field ion interaction         -0.114314 eV  (added to PSCEN)


 Broyden mixing:
  rms(total) = 0.10841E+01    rms(broyden)= 0.10840E+01
  rms(prec ) = 0.11664E+01
  weight for this iteration     100.00

 eigenvalues of (default mixing * dielectric matrix)
  average eigenvalue GAMMA=   0.5909
  2.1166  0.6630  0.6220  0.6220  0.2428  0.0992  0.1878  0.1734

 Free energy of the ion-electron system (eV)
  ---------------------------------------------------
  alpha Z        PSCENC =       760.04910715
  Ewald energy   TEWEN  =    382215.60290348
  -Hartree energ DENC   =   -435524.83764519
  -exchange      EXHF   =         0.00000000
  -V(xc)+E(xc)   XCENC  =     -1815.91452206
  PAW double counting   =     61855.91073290   -58021.23436001
  entropy T*S    EENTRO =        -0.04260094
  eigenvalues    EBANDS =     -2290.04302037
  atomic energy  EATOM  =     52532.82595619
  Solvation  Ediel_sol  =         0.00000000
  ---------------------------------------------------
  free energy    TOTEN  =      -287.68344885 eV

  energy without entropy =     -287.64084791  energy(sigma->0) =     -287.66924854


--------------------------------------------------------------------------------------------------------




--------------------------------------- Iteration      1(  14)  ---------------------------------------


    POTLOK:  cpu time    0.4245: real time    0.2490
    SETDIJ:  cpu time    0.0202: real time    0.0131
    EDDIAG:  cpu time   11.6154: real time    5.8221
  RMM-DIIS:  cpu time   29.9633: real time   15.1448
    ORTHCH:  cpu time    2.6873: real time    1.3490
       DOS:  cpu time    0.0039: real time    0.0019
    CHARGE:  cpu time    2.0365: real time    1.7510
    MIXING:  cpu time    0.0089: real time    0.0045
    --------------------------------------------
      LOOP:  cpu time   46.7600: real time   24.3354

 eigenvalue-minimisations  : 15394
 total energy-change (2. order) :-0.3268546E+01  (-0.1171146E+00)
 number of electron     651.9999402 magnetization      50.9306838
 augmentation part      270.7861978 magnetization      35.0649820

 DIPCOR: dipole corrections for dipol
 direction  3 min pos     1,
 dipolmoment           0.000000      0.000000      0.112012 electrons x Angstroem
 Tr[quadrupol]    -13592.833740

 energy correction for charged system         0.000000 eV
 dipol+quadrupol energy correction           -0.000314 eV
 added-field ion interaction         -0.392390 eV  (added to PSCEN)


 Broyden mixing:
  rms(total) = 0.10749E+01    rms(broyden)= 0.10748E+01
  rms(prec ) = 0.11666E+01
  weight for this iteration     100.00

 eigenvalues of (default mixing * dielectric matrix)
  average eigenvalue GAMMA=   0.5974
  2.0686  0.8606  0.8606  0.6095  0.2601  0.2601  0.0994  0.1972  0.1603

 Free energy of the ion-electron system (eV)
  ---------------------------------------------------
[...]
   -.803E+01 0.818E+01 0.956E+03   0.804E+01 -.824E+01 -.956E+03   -.800E-02 0.563E-02 -.847E-01   0.103E-01 0.564E-01 0.536E-01
   -.797E+01 -.675E+01 0.958E+03   0.795E+01 0.677E+01 -.958E+03   0.738E-02 -.163E-01 -.108E+00   0.844E-02 -.238E-02 0.762E-01
   -.485E+01 -.657E+01 0.941E+03   0.486E+01 0.664E+01 -.941E+03   -.205E-01 -.954E-02 -.545E-01   0.123E-01 -.591E-01 0.458E-01
   -.718E+00 0.246E+01 0.935E+03   0.818E+00 -.246E+01 -.935E+03   -.913E-01 0.658E-02 0.718E-01   -.186E-01 0.496E-03 0.303E-01
   -.480E+01 0.420E+01 0.939E+03   0.483E+01 -.429E+01 -.939E+03   -.174E-01 0.387E-01 -.269E-01   -.221E-01 0.495E-01 0.722E-01
   -.563E+01 -.413E+01 0.943E+03   0.568E+01 0.415E+01 -.943E+03   -.193E-01 -.140E-01 -.693E-02   -.297E-01 -.548E-02 0.859E-01
   -.228E+01 -.242E+01 0.933E+03   0.231E+01 0.251E+01 -.933E+03   -.150E-01 -.385E-01 -.205E-01   -.235E-01 -.506E-01 0.573E-01
   0.209E+02 0.196E+02 -.837E+03   -.207E+02 -.195E+02 0.838E+03   -.168E+00 -.143E+00 -.193E+00   -.616E-02 0.554E-01 0.282E-01
   0.273E+02 0.729E+00 -.809E+03   -.274E+02 -.748E+00 0.809E+03   0.760E-01 -.225E-01 0.101E+00   0.518E-03 0.418E-01 0.441E-01
   0.193E+02 -.191E+02 -.836E+03   -.192E+02 0.190E+02 0.836E+03   -.642E-02 0.128E+00 -.672E-01   -.418E-02 -.537E-01 0.364E-01
   0.112E+02 -.119E+01 -.839E+03   -.111E+02 0.117E+01 0.840E+03   -.289E-01 0.556E-01 -.753E-01   -.636E-02 -.383E-01 0.273E-01
   -.973E-01 0.262E+02 -.804E+03   0.673E-01 -.264E+02 0.804E+03   -.971E-05 0.149E+00 0.159E+00   0.289E-01 0.546E-01 0.198E-01
   0.152E-01 0.158E+00 -.726E+03   -.441E-01 -.240E+00 0.725E+03   -.458E-02 0.381E-01 0.131E+01   0.313E-01 0.468E-01 0.345E-01
   0.247E+00 -.265E+02 -.786E+03   -.284E+00 0.265E+02 0.785E+03   -.598E-02 0.213E-01 0.103E+01   0.364E-01 -.608E-01 0.283E-01
   -.122E+00 0.520E+00 -.831E+03   0.863E-01 -.306E+00 0.831E+03   0.326E-02 -.174E+00 0.176E+00   0.349E-01 -.445E-01 0.221E-01
   -.209E+02 0.194E+02 -.837E+03   0.207E+02 -.193E+02 0.837E+03   0.170E+00 -.141E+00 -.196E+00   0.836E-02 0.536E-01 0.326E-01
   -.274E+02 0.109E+01 -.808E+03   0.274E+02 -.112E+01 0.808E+03   -.726E-01 -.285E-01 0.966E-01   -.267E-02 0.509E-01 0.487E-01
   -.194E+02 -.193E+02 -.834E+03   0.194E+02 0.192E+02 0.834E+03   0.616E-02 0.131E+00 -.513E-01   0.304E-02 -.567E-01 0.388E-01
   -.109E+02 -.125E+01 -.838E+03   0.109E+02 0.124E+01 0.838E+03   0.206E-01 0.535E-01 -.684E-01   0.389E-02 -.457E-01 0.337E-01
   0.188E+00 0.101E+02 -.835E+03   -.160E+00 -.102E+02 0.835E+03   -.357E-02 -.825E-02 0.464E-01   -.270E-01 0.552E-01 0.441E-01
   0.370E-01 0.809E+00 -.827E+03   -.186E-02 -.856E+00 0.827E+03   0.108E-03 0.349E-02 0.554E-01   -.347E-01 0.424E-01 0.562E-01
   0.260E-01 -.960E+01 -.833E+03   0.113E-01 0.967E+01 0.834E+03   -.202E-02 -.720E-02 0.479E-01   -.364E-01 -.578E-01 0.509E-01
   0.231E-02 -.145E+01 -.839E+03   0.304E-01 0.147E+01 0.839E+03   -.748E-03 0.209E-01 0.170E-01   -.319E-01 -.401E-01 0.387E-01
   0.158E+02 0.131E+02 -.258E+04   -.158E+02 -.131E+02 0.258E+04   -.220E-01 0.142E-01 0.326E+01   -.261E-01 0.113E-01 0.489E-01
   0.391E+02 0.193E+02 -.257E+04   -.390E+02 -.194E+02 0.257E+04   -.852E-01 0.190E-01 0.330E+01   -.254E-01 0.624E-01 0.218E-01
   0.378E+02 -.177E+02 -.257E+04   -.377E+02 0.177E+02 0.257E+04   -.598E-01 -.822E-03 0.333E+01   -.275E-01 -.130E-01 0.226E-02
   0.172E+02 -.147E+02 -.258E+04   -.171E+02 0.148E+02 0.258E+04   -.880E-01 -.445E-01 0.330E+01   -.281E-01 -.603E-01 0.281E-01
   0.197E+02 0.367E+02 -.257E+04   -.197E+02 -.366E+02 0.257E+04   0.657E-01 -.121E+00 0.339E+01   0.121E-01 0.997E-02 0.477E-01
   0.139E+03 0.134E+03 -.247E+04   -.140E+03 -.135E+03 0.246E+04   0.279E+00 0.163E+00 0.261E+01   0.173E-01 0.680E-01 0.264E-01
   0.141E+03 -.114E+03 -.248E+04   -.141E+03 0.114E+03 0.248E+04   0.605E+00 -.284E+00 0.273E+01   0.250E-01 -.209E-01 0.514E-02
   0.471E+02 -.611E+02 -.257E+04   -.462E+02 0.603E+02 0.257E+04   -.949E+00 0.836E+00 0.228E+01   0.153E-01 -.617E-01 0.169E-01
   -.199E+02 0.366E+02 -.257E+04   0.200E+02 -.365E+02 0.257E+04   -.672E-01 -.119E+00 0.338E+01   0.257E-01 0.486E-02 0.357E-01
   -.140E+03 0.134E+03 -.247E+04   0.140E+03 -.134E+03 0.247E+04   -.287E+00 0.155E+00 0.262E+01   0.158E-01 0.727E-01 0.136E-01
   -.140E+03 -.112E+03 -.248E+04   0.141E+03 0.112E+03 0.248E+04   -.642E+00 -.319E+00 0.276E+01   0.225E-01 -.960E-02 -.101E-01
   -.472E+02 -.612E+02 -.257E+04   0.462E+02 0.604E+02 0.257E+04   0.945E+00 0.838E+00 0.228E+01   0.316E-01 -.618E-01 0.267E-02
   -.156E+02 0.129E+02 -.258E+04   0.156E+02 -.129E+02 0.258E+04   0.243E-01 0.168E-01 0.326E+01   -.129E-01 0.874E-02 0.338E-01
   -.386E+02 0.193E+02 -.257E+04   0.385E+02 -.194E+02 0.257E+04   0.869E-01 0.168E-01 0.330E+01   -.877E-02 0.639E-01 -.101E-02
   -.375E+02 -.176E+02 -.257E+04   0.375E+02 0.176E+02 0.257E+04   0.635E-01 0.587E-03 0.333E+01   -.173E-01 -.104E-01 -.148E-01
   -.169E+02 -.146E+02 -.258E+04   0.169E+02 0.148E+02 0.258E+04   0.845E-01 -.482E-01 0.330E+01   -.149E-01 -.632E-01 0.542E-02
   -.886E+00 -.358E+01 -.137E+04   0.973E+00 0.453E+01 0.134E+04   -.924E-01 -.977E+00 0.259E+02   0.850E-02 0.189E-01 0.115E-01
   0.150E+00 0.669E+01 -.210E+04   -.203E+00 -.706E+01 0.216E+04   0.457E-01 0.362E+00 -.558E+02   0.781E-02 0.222E-02 -.263E-01
   -.668E-02 0.152E+01 -.299E+03   0.513E-02 -.237E+01 0.300E+03   0.200E-03 0.853E+00 -.621E+00   0.320E-02 -.589E-02 -.107E-03
 -----------------------------------------------------------------------------------------------
   0.592E-01 -.139E+01 0.309E+02   0.657E-12 0.204E-13 -.119E-10   -.840E-01 0.139E+01 -.327E+02   0.276E-01 -.143E-02 0.185E+01
 
 
 POSITION                                       TOTAL-FORCE (eV/Angst)
 -----------------------------------------------------------------------------------
      1.37275      1.37275     12.08797        -0.005095     -0.007943      0.003639
      1.37275      4.11824     12.08797        -0.010787     -0.005525      0.004567
      1.37275      6.86373     12.08797        -0.005659      0.010391      0.001940
      1.37275      9.60922     12.08797        -0.014451     -0.001598      0.003493
      4.11824      1.37275     12.08797        -0.001217     -0.023686      0.017436
      4.11824      4.11824     12.08797         0.000183      0.000018      0.002061
      4.11824      6.86373     12.08797         0.000403      0.012366      0.007881
      4.11824      9.60922     12.08797         0.000087     -0.001209      0.023573
      6.86373      1.37275     12.08797         0.005435     -0.006746      0.002760
      6.86373      4.11824     12.08797         0.010168     -0.004906      0.004688
      6.86373      6.86373     12.08797         0.007256      0.010233      0.001672
      6.86373      9.60922     12.08797         0.015975     -0.000230      0.003634
      9.60922      1.37275     12.08797         0.001143      0.010058     -0.010223
      9.60922      4.11824     12.08797         0.000877     -0.010628      0.020285
      9.60922      6.86373     12.08797         0.002540      0.024926      0.014581
      9.60922      9.60922     12.08797         0.002488     -0.016982     -0.034506
     10.98125      0.00072     14.03955         0.005852      0.001906     -0.002495
      0.00069      2.74226     14.04467         0.005412     -0.003379     -0.001272
      0.00102      5.49232     14.04097        -0.001796     -0.000254     -0.008682
      0.00227      8.23770     14.04519         0.003229     -0.000416     -0.003954
      2.74098     10.98018     14.04318        -0.004520      0.009555     -0.006833
      2.74264      2.74219     14.04100        -0.007320     -0.007851     -0.003461
      2.74192      5.49129     14.03953         0.001278      0.005634     -0.003491
      2.74354      8.23597     14.04385        -0.004937     -0.006172      0.004155
      5.49547     10.98104     14.04268         0.006685      0.005563     -0.007146
      5.49343      2.74234     14.04084         0.009257     -0.003474     -0.004377
      5.49482      5.49176     14.03949         0.000335      0.002952     -0.010634
      5.49371      8.23632     14.04348         0.007493     -0.002034     -0.000757
      8.23850      0.00107     14.03914        -0.008657      0.003283      0.000420
      8.23596      2.74240     14.04449        -0.006248     -0.003399      0.002724
      8.23652      5.49211     14.04067         0.002918      0.002031     -0.009827
      8.23640      8.23782     14.04426        -0.006008     -0.000362      0.001654
      1.38728      1.38451     16.01124        -0.005458     -0.000004     -0.008512
      1.37072      4.11974     15.99313         0.003139      0.002018      0.007846
      1.38239      6.84760     16.00906         0.006432      0.005782     -0.003063
      1.37736      9.60550     15.99777        -0.000775     -0.005095      0.000341
      4.11832      1.36502     15.98915        -0.001012      0.003403     -0.004879
      4.11865      4.11169     15.95226        -0.002075      0.005955      0.008357
      4.12015      6.86272     15.97565        -0.007193      0.006137     -0.003654
      4.11921      9.61081     15.99372         0.001953     -0.006618      0.005703
      6.84878      1.38566     16.01052         0.008450      0.002622     -0.010410
      6.86553      4.12173     15.99245        -0.000654     -0.004379      0.007537
      6.85663      6.84883     16.00647        -0.003718      0.011032      0.005313
      6.86128      9.60680     15.99553        -0.005541     -0.006790      0.004911
      9.61007      1.37102     15.98940        -0.002836      0.002008      0.000073
      9.60963      4.11866     15.98690         0.000494     -0.002230      0.002884
      9.61094      6.86327     15.98931        -0.001260     -0.000645     -0.001711
      9.61074      9.60915     15.98870        -0.000092      0.003436      0.000314
     10.98021     10.98120     17.94624         0.002149     -0.003784     -0.012345
     10.97768      2.74562     17.94943        -0.000270      0.001871     -0.005655
     10.97710      5.48834     17.95219         0.002486     -0.002734     -0.003315
     10.97847      8.23665     17.94625         0.006116      0.002213     -0.004915
      2.74363     10.98054     17.95258        -0.000082     -0.005075     -0.001084
      2.74989      2.74982     18.00674         0.000597      0.014576      0.000224
      2.75988      5.47501     18.01632        -0.003668     -0.004619      0.002180
      2.73819      8.22882     17.97516        -0.008013      0.005311      0.002512
      5.49460      0.00195     17.95244        -0.000875     -0.009635     -0.003279
      5.48577      2.75469     18.00743        -0.002205      0.010155     -0.002597
      5.48097      5.47990     18.01587        -0.001243     -0.008708      0.000691
      5.50261      8.23247     17.97567         0.007019      0.004340     -0.002649
      8.23876     10.98136     17.94385        -0.000290     -0.001722     -0.007741
      8.23954      2.74605     17.94613         0.001793      0.002911      0.001603
      8.24335      5.48902     17.95102        -0.002980     -0.001190     -0.002214
      8.24305      8.23729     17.94318        -0.008376      0.000748      0.000647
      4.11271      4.03283     19.06510         0.003141     -0.007405     -0.004463
      4.11145      4.02121     20.28602         0.000677     -0.005318      0.000008
      4.12146      7.20145     18.46639         0.001850     -0.000689      0.017838
 -----------------------------------------------------------------------------------
    total drift:                                0.002690      0.000469      0.026508


--------------------------------------------------------------------------------------------------------



  FREE ENERGIE OF THE ION-ELECTRON SYSTEM (eV)
  ---------------------------------------------------
  free  energy   TOTEN  =      -354.79168364 eV

  energy  without entropy=     -354.68309886  energy(sigma->0) =     -354.75548872
 
 d Force = 0.1398438E-03[ 0.333E-04, 0.246E-03]  d Energy = 0.1354497E-03 0.439E-05
 d Force = 0.1062232E+02[ 0.106E+02, 0.106E+02]  d Ewald  = 0.1062232E+02-0.143E-05


--------------------------------------------------------------------------------------------------------


    POTLOK:  cpu time    0.2137: real time    0.2069


--------------------------------------------------------------------------------------------------------




--------------------------------------------------------------------------------------------------------


  
 reached required accuracy - stopping structural energy minimisation
     LOOP+:  cpu time  386.5071: real time  204.3032
    4ORBIT:  cpu time    0.0000: real time    0.0000
 


 total charge     
 
# of ion       s       p       d       tot
------------------------------------------
    1        0.446   0.308   8.521   9.275
    2        0.445   0.308   8.522   9.275
    3        0.445   0.308   8.522   9.275
    4        0.445   0.308   8.520   9.273
    5        0.445   0.307   8.522   9.274
    6        0.445   0.308   8.521   9.274
    7        0.444   0.308   8.522   9.274
    8        0.445   0.306   8.523   9.274
    9        0.446   0.308   8.521   9.276
   10        0.445   0.308   8.522   9.275
   11        0.445   0.308   8.522   9.275
   12        0.445   0.308   8.520   9.273
   13        0.442   0.310   8.522   9.274
   14        0.445   0.306   8.523   9.274
   15        0.444   0.308   8.521   9.273
   16        0.445   0.308   8.523   9.276
   17        0.485   0.475   8.466   9.426
   18        0.486   0.478   8.460   9.424
   19        0.485   0.479   8.460   9.424
   20        0.485   0.477   8.461   9.422
   21        0.485   0.478   8.459   9.422
   22        0.488   0.482   8.457   9.427
   23        0.488   0.483   8.457   9.427
   24        0.486   0.479   8.459   9.423
   25        0.485   0.478   8.459   9.423
   26        0.488   0.482   8.457   9.427
   27        0.488   0.483   8.456   9.427
   28        0.486   0.479   8.459   9.423
   29        0.484   0.475   8.466   9.425
   30        0.485   0.478   8.460   9.423
   31        0.485   0.479   8.460   9.424
   32        0.485   0.477   8.460   9.422
   33        0.486   0.476   8.460   9.422
   34        0.484   0.471   8.465   9.421
   35        0.486   0.473   8.460   9.418
   36        0.486   0.474   8.462   9.423
   37        0.484   0.472   8.467   9.423
   38        0.475   0.456   8.486   9.418
   39        0.470   0.465   8.481   9.416
   40        0.483   0.473   8.462   9.417
   41        0.486   0.476   8.460   9.422
   42        0.485   0.472   8.464   9.420
   43        0.486   0.473   8.459   9.418
   44        0.486   0.474   8.462   9.422
   45        0.486   0.477   8.457   9.420
   46        0.486   0.479   8.459   9.423
   47        0.485   0.478   8.457   9.421
   48        0.488   0.480   8.457   9.425
   49        0.445   0.309   8.520   9.274
   50        0.446   0.308   8.524   9.278
   51        0.446   0.306   8.524   9.276
   52        0.447   0.309   8.524   9.280
   53        0.446   0.306   8.529   9.280
   54        0.439   0.380   8.533   9.352
   55        0.422   0.370   8.539   9.331
   56        0.455   0.372   8.544   9.371
   57        0.446   0.305   8.528   9.280
   58        0.439   0.379   8.533   9.350
   59        0.421   0.368   8.540   9.328
   60        0.455   0.371   8.544   9.370
   61        0.445   0.309   8.520   9.275
   62        0.447   0.309   8.524   9.279
   63        0.446   0.307   8.524   9.276
   64        0.448   0.309   8.523   9.280
   65        1.289   2.337   0.000   3.626
   66        1.633   3.430   0.000   5.063
   67        0.474   0.024   0.000   0.499
--------------------------------------------------
tot         33.124  31.260 543.595 607.979
 


 magnetization (x)
 
# of ion       s       p       d       tot
------------------------------------------
    1       -0.001  -0.004   0.226   0.222
    2       -0.001  -0.004   0.229   0.224
    3       -0.001  -0.004   0.228   0.223
    4       -0.001  -0.003   0.227   0.222
    5       -0.001  -0.004   0.225   0.220
    6       -0.000  -0.004   0.232   0.228
    7       -0.001  -0.004   0.230   0.225
    8       -0.000  -0.004   0.214   0.210
    9       -0.001  -0.004   0.226   0.222
   10       -0.001  -0.004   0.229   0.225
   11       -0.001  -0.004   0.228   0.224
   12       -0.001  -0.003   0.227   0.222
   13       -0.001  -0.003   0.233   0.228
   14       -0.001  -0.004   0.218   0.213
   15       -0.001  -0.003   0.229   0.224
   16        0.003  -0.004   0.239   0.238
   17       -0.002  -0.006   0.321   0.313
   18       -0.002  -0.006   0.325   0.316
   19       -0.002  -0.007   0.324   0.316
   20       -0.002  -0.006   0.318   0.310
   21       -0.002  -0.006   0.319   0.311
   22       -0.002  -0.006   0.326   0.318
   23       -0.002  -0.006   0.327   0.318
   24       -0.002  -0.006   0.325   0.317
   25       -0.002  -0.006   0.319   0.311
   26       -0.002  -0.006   0.326   0.318
   27       -0.002  -0.006   0.327   0.319
   28       -0.002  -0.006   0.325   0.317
   29       -0.002  -0.006   0.321   0.313
   30       -0.002  -0.006   0.325   0.316
   31       -0.002  -0.007   0.325   0.316
   32       -0.002  -0.006   0.319   0.311
   33       -0.002  -0.006   0.283   0.275
   34       -0.002  -0.006   0.310   0.303
   35       -0.002  -0.006   0.283   0.275
   36       -0.002  -0.006   0.299   0.291
   37       -0.002  -0.006   0.314   0.306
   38       -0.001  -0.005   0.274   0.268
   39       -0.002  -0.005   0.296   0.289
   40       -0.002  -0.006   0.302   0.293
   41       -0.002  -0.006   0.284   0.275
   42       -0.002  -0.006   0.311   0.303
   43       -0.002  -0.006   0.284   0.276
   44       -0.002  -0.006   0.299   0.291
   45       -0.002  -0.006   0.320   0.312
   46       -0.002  -0.006   0.318   0.309
   47       -0.002  -0.006   0.321   0.313
   48       -0.001  -0.006   0.322   0.314
   49       -0.001  -0.003   0.227   0.223
   50       -0.000  -0.004   0.210   0.206
   51       -0.000  -0.003   0.216   0.212
   52       -0.001  -0.003   0.214   0.209
   53       -0.000  -0.004   0.213   0.209
   54       -0.003  -0.004   0.100   0.093
   55       -0.002  -0.003   0.102   0.096
   56       -0.001  -0.004   0.137   0.132
   57       -0.000  -0.004   0.213   0.209
   58       -0.003  -0.004   0.100   0.094
   59       -0.002  -0.003   0.103   0.098
   60       -0.001  -0.004   0.137   0.132
   61       -0.001  -0.003   0.227   0.223
   62       -0.000  -0.004   0.211   0.207
   63       -0.000  -0.004   0.216   0.212
   64       -0.001  -0.003   0.214   0.210
   65        0.001  -0.008   0.000  -0.007
   66       -0.000  -0.016   0.000  -0.017
   67       -0.002  -0.000   0.000  -0.002
--------------------------------------------------
tot         -0.085  -0.338  16.468  16.045
 

 total amount of memory used by VASP MPI-rank0   268772. kBytes
=======================================================================

   base      :      30000. kBytes
   nonlr-proj:      50782. kBytes
   fftplans  :       7679. kBytes
   grid      :      92335. kBytes
   one-center:       2083. kBytes
   wavefun   :      85893. kBytes
 
  
  
 General timing and accounting informations for this job:
 ========================================================
  
                  Total CPU time used (sec):     5011.924
                            User time (sec):     4844.095
                          System time (sec):      167.829
                         Elapsed time (sec):     2687.492
  
                   Maximum memory used (kb):      842396.
                   Average memory used (kb):           0.
  
                          Minor page faults:       665091
                          Major page faults:           11
                 Voluntary context switches:        22112
