 vasp.5.4.4.18Apr17-6-g9f103f2a35 (build May 01 2020 14:57:12) complex          
  
 executed on             LinuxIFC date 2021.11.11  14:03:34
 running on  192 total cores
 distrk:  each k-point on  192 cores,    1 groups
 distr:  one band on NCORES_PER_BAND=   1 cores,  192 groups


--------------------------------------------------------------------------------------------------------


 INCAR:
 POTCAR:    PAW_PBE Cu 22Jun2005                  
 POTCAR:    PAW_PBE N 08Apr2002                   
 POTCAR:    PAW_PBE O 08Apr2002                   

 ----------------------------------------------------------------------------- 
|                                                                             |
|           W    W    AA    RRRRR   N    N  II  N    N   GGGG   !!!           |
|           W    W   A  A   R    R  NN   N  II  NN   N  G    G  !!!           |
|           W    W  A    A  R    R  N N  N  II  N N  N  G       !!!           |
|           W WW W  AAAAAA  RRRRR   N  N N  II  N  N N  G  GGG   !            |
|           WW  WW  A    A  R   R   N   NN  II  N   NN  G    G                |
|           W    W  A    A  R    R  N    N  II  N    N   GGGG   !!!           |
|                                                                             |
|      For optimal performance we recommend to set                            |
|        NCORE= 4 - approx SQRT( number of cores)                             |
|      NCORE specifies how many cores store one orbital (NPAR=cpu/NCORE).     |
|      This setting can  greatly improve the performance of VASP for DFT.     |
|      The default,   NCORE=1            might be grossly inefficient         |
|      on modern multi-core architectures or massively parallel machines.     |
|      Do your own testing !!!!                                               |
|      Unfortunately you need to use the default for GW and RPA calculations. |
|      (for HF NCORE is supported but not extensively tested yet)             |
|                                                                             |
 ----------------------------------------------------------------------------- 

 POTCAR:    PAW_PBE Cu 22Jun2005                  
   VRHFIN =Cu: d10 p1                                                           
   LEXCH  = PE                                                                  
   EATOM  =  1390.9808 eV,  102.2342 Ry                                         
                                                                                
   TITEL  = PAW_PBE Cu 22Jun2005                                                
   LULTRA =        F    use ultrasoft PP ?                                      
   IUNSCR =        1    unscreen: 0-lin 1-nonlin 2-no                           
   RPACOR =    2.000    partial core radius                                     
   POMASS =   63.546; ZVAL   =   11.000    mass and valenz                      
   RCORE  =    2.300    outmost cutoff radius                                   
   RWIGS  =    2.200; RWIGS  =    1.164    wigner-seitz radius (au A)           
   ENMAX  =  295.446; ENMIN  =  221.585 eV                                      
   ICORE  =        3    local potential                                         
   LCOR   =        T    correct aug charges                                     
   LPAW   =        T    paw PP                                                  
   EAUG   =  586.980                                                            
   DEXC   =    0.000                                                            
   RMAX   =    2.344    core radius for proj-oper                               
   RAUG   =    1.300    factor for augmentation sphere                          
   RDEP   =    2.302    radius for radial grids                                 
   RDEPT  =    1.771    core radius for aug-charge                              
                                                                                
   Atomic configuration                                                         
    9 entries                                                                   
     n  l   j            E        occ.                                          
     1  0  0.50     -8850.2468   2.0000                                         
     2  0  0.50     -1062.3498   2.0000                                         
     2  1  1.50      -916.8226   6.0000                                         
     3  0  0.50      -114.6929   2.0000                                         
     3  1  1.50       -72.1325   6.0000                                         
     3  2  2.50        -5.0394  10.0000                                         
     4  0  0.50        -4.6097   1.0000                                         
     4  1  0.50        -4.0817   0.0000                                         
     4  3  2.50        -1.3606   0.0000                                         
   Description                                                                  
     l       E           TYP  RCUT    TYP  RCUT                                 
     2     -5.0393973     23  2.200                                             
     2     10.8846608     23  2.200                                             
     0     -4.6097109     23  2.200                                             
     0      8.2520465     23  2.200                                             
     1     -2.7211652     23  2.200                                             
     1     21.7055443     23  2.200                                             
     3      2.7211652     23  2.300                                             
  local pseudopotential read in
  partial core-charges read in
  partial kinetic energy density read in
  atomic valenz-charges read in
  non local Contribution for L=           2  read in
    real space projection operators read in
  non local Contribution for L=           2  read in
    real space projection operators read in
  non local Contribution for L=           0  read in
    real space projection operators read in
  non local Contribution for L=           0  read in
    real space projection operators read in
  non local Contribution for L=           1  read in
    real space projection operators read in
  non local Contribution for L=           1  read in
    real space projection operators read in
    PAW grid and wavefunctions read in
 
   number of l-projection  operators is LMAX  =           6
   number of lm-projection operators is LMMAX =          18
 
 POTCAR:    PAW_PBE N 08Apr2002                   
   VRHFIN =N: s2p3                                                              
   LEXCH  = PE                                                                  
   EATOM  =   264.5486 eV,   19.4438 Ry                                         
                                                                                
   TITEL  = PAW_PBE N 08Apr2002                                                 
   LULTRA =        F    use ultrasoft PP ?                                      
   IUNSCR =        1    unscreen: 0-lin 1-nonlin 2-no                           
   RPACOR =    1.200    partial core radius                                     
   POMASS =   14.001; ZVAL   =    5.000    mass and valenz                      
   RCORE  =    1.500    outmost cutoff radius                                   
   RWIGS  =    1.400; RWIGS  =    0.741    wigner-seitz radius (au A)           
   ENMAX  =  400.000; ENMIN  =  300.000 eV                                      
   ICORE  =        2    local potential                                         
   LCOR   =        T    correct aug charges                                     
   LPAW   =        T    paw PP                                                  
   EAUG   =  627.112                                                            
   DEXC   =    0.000                                                            
   RMAX   =    1.529    core radius for proj-oper                               
   RAUG   =    1.300    factor for augmentation sphere                          
   RDEP   =    1.514    radius for radial grids                                 
   RDEPT  =    1.338    core radius for aug-charge                              
                                                                                
   Atomic configuration                                                         
    4 entries                                                                   
     n  l   j            E        occ.                                          
     1  0  0.50      -384.7179   2.0000                                         
     2  0  0.50       -18.5828   2.0000                                         
     2  1  0.50        -7.0898   3.0000                                         
     3  2  1.50        -6.8029   0.0000                                         
   Description                                                                  
     l       E           TYP  RCUT    TYP  RCUT                                 
     0    -18.5828119     23  1.200                                             
     0    -13.5018863     23  1.200                                             
     1     -7.0897853     23  1.500                                             
     1      9.5240782     23  1.500                                             
     2     -6.8029130      7  1.500                                             
  local pseudopotential read in
  partial core-charges read in
  partial kinetic energy density read in
  atomic valenz-charges read in
  non local Contribution for L=           0  read in
    real space projection operators read in
  non local Contribution for L=           0  read in
    real space projection operators read in
  non local Contribution for L=           1  read in
    real space projection operators read in
  non local Contribution for L=           1  read in
    real space projection operators read in
    PAW grid and wavefunctions read in
 
   number of l-projection  operators is LMAX  =           4
   number of lm-projection operators is LMMAX =           8
 
 POTCAR:    PAW_PBE O 08Apr2002                   
   VRHFIN =O: s2p4                                                              
   LEXCH  = PE                                                                  
   EATOM  =   432.3788 eV,   31.7789 Ry                                         
                                                                                
   TITEL  = PAW_PBE O 08Apr2002                                                 
   LULTRA =        F    use ultrasoft PP ?                                      
   IUNSCR =        1    unscreen: 0-lin 1-nonlin 2-no                           
   RPACOR =    1.200    partial core radius                                     
   POMASS =   16.000; ZVAL   =    6.000    mass and valenz                      
   RCORE  =    1.520    outmost cutoff radius                                   
   RWIGS  =    1.550; RWIGS  =    0.820    wigner-seitz radius (au A)           
   ENMAX  =  400.000; ENMIN  =  300.000 eV                                      
   ICORE  =        2    local potential                                         
   LCOR   =        T    correct aug charges                                     
   LPAW   =        T    paw PP                                                  
   EAUG   =  605.392                                                            
   DEXC   =    0.000                                                            
   RMAX   =    1.553    core radius for proj-oper                               
   RAUG   =    1.300    factor for augmentation sphere                          
   RDEP   =    1.550    radius for radial grids                                 
   RDEPT  =    1.329    core radius for aug-charge                              
                                                                                
   Atomic configuration                                                         
    4 entries                                                                   
     n  l   j            E        occ.                                          
     1  0  0.50      -514.6923   2.0000                                         
     2  0  0.50       -23.9615   2.0000                                         
     2  1  0.50        -9.0305   4.0000                                         
     3  2  1.50        -9.5241   0.0000                                         
   Description                                                                  
     l       E           TYP  RCUT    TYP  RCUT                                 
     0    -23.9615318     23  1.200                                             
     0     -9.5240782     23  1.200                                             
     1     -9.0304911     23  1.520                                             
     1      8.1634956     23  1.520                                             
     2     -9.5240782      7  1.500                                             
  local pseudopotential read in
  partial core-charges read in
  partial kinetic energy density read in
  kinetic energy density of atom read in
  atomic valenz-charges read in
  non local Contribution for L=           0  read in
    real space projection operators read in
  non local Contribution for L=           0  read in
    real space projection operators read in
  non local Contribution for L=           1  read in
    real space projection operators read in
  non local Contribution for L=           1  read in
    real space projection operators read in
    PAW grid and wavefunctions read in
 
   number of l-projection  operators is LMAX  =           4
   number of lm-projection operators is LMMAX =           8
 
 Optimization of the real space projectors (new method)

 maximal supplied QI-value         = 16.25
 optimisation between [QCUT,QGAM] = [ 10.24, 20.48] = [ 29.35,117.42] Ry 
 Optimized for a Real-space Cutoff    1.55 Angstroem

   l    n(q)    QCUT    max X(q) W(low)/X(q) W(high)/X(q)  e(spline) 
   2      9    10.239     4.610    0.85E-04    0.29E-03    0.14E-06
   2      9    10.239     8.522    0.15E-03    0.50E-03    0.27E-06
   0     10    10.239    51.609    0.45E-04    0.99E-04    0.10E-06
   0     10    10.239    27.747    0.40E-04    0.93E-04    0.97E-07
   1      9    10.239    20.408    0.15E-03    0.78E-05    0.15E-06
   1      9    10.239    13.425    0.13E-03    0.71E-05    0.14E-06
 Optimization of the real space projectors (new method)

 maximal supplied QI-value         = 25.13
 optimisation between [QCUT,QGAM] = [ 10.05, 20.36] = [ 28.30,116.06] Ry 
 Optimized for a Real-space Cutoff    1.70 Angstroem

   l    n(q)    QCUT    max X(q) W(low)/X(q) W(high)/X(q)  e(spline) 
   0     10    10.053    79.467    0.61E-04    0.98E-04    0.61E-06
   0     10    10.053    66.151    0.60E-04    0.98E-04    0.61E-06
   1     10    10.053     8.350    0.17E-03    0.71E-03    0.45E-05
   1     10    10.053     5.531    0.18E-03    0.77E-03    0.49E-05
 Optimization of the real space projectors (new method)

 maximal supplied QI-value         = 24.76
 optimisation between [QCUT,QGAM] = [ 10.15, 20.30] = [ 28.85,115.39] Ry 
 Optimized for a Real-space Cutoff    1.51 Angstroem

   l    n(q)    QCUT    max X(q) W(low)/X(q) W(high)/X(q)  e(spline) 
   0      9    10.150    20.381    0.17E-03    0.18E-03    0.41E-06
   0      9    10.150    15.268    0.18E-03    0.20E-03    0.43E-06
   1      9    10.150     5.964    0.16E-03    0.20E-03    0.36E-06
   1      9    10.150     5.382    0.13E-03    0.16E-03    0.33E-06
  PAW_PBE Cu 22Jun2005                  :
 energy of atom  1       EATOM=-1390.9808
 kinetic energy error for atom=    0.0232 (will be added to EATOM!!)
  PAW_PBE N 08Apr2002                   :
 energy of atom  2       EATOM= -264.5486
 kinetic energy error for atom=    0.0736 (will be added to EATOM!!)
  PAW_PBE O 08Apr2002                   :
 energy of atom  3       EATOM= -432.3788
 kinetic energy error for atom=    0.1156 (will be added to EATOM!!)
 
 
 POSCAR: Cu N O                                  
  positions in direct lattice
  velocities in cartesian coordinates
 exchange correlation table for  LEXCH =        8
   RHO(1)=    0.500       N(1)  =     2000
   RHO(2)=  100.500       N(2)  =     4000
 


--------------------------------------------------------------------------------------------------------


 ion  position               nearest neighbor table
   1  0.125  0.125  0.410-  22 2.50  18 2.52  21 2.52  17 2.52   2 2.52   5 2.52   4 2.52  13 2.52

   2  0.125  0.375  0.410-  22 2.51  23 2.51  19 2.52  18 2.52   3 2.52   6 2.52   1 2.52  14 2.52

   3  0.125  0.625  0.410-  23 2.50  19 2.52  20 2.52  24 2.52   4 2.52   7 2.52   2 2.52  15 2.52

   4  0.125  0.875  0.410-  24 2.52  17 2.52  20 2.52  21 2.52   3 2.52   8 2.52   1 2.52  16 2.52

   5  0.375  0.125  0.410-  22 2.51  26 2.51  25 2.52  21 2.52   6 2.52   9 2.52   1 2.52   8 2.52

   6  0.375  0.375  0.410-  22 2.52  23 2.52  26 2.52  27 2.52   2 2.52   5 2.52   7 2.52  10 2.52

   7  0.375  0.625  0.410-  23 2.51  27 2.51  28 2.52  24 2.52   3 2.52   6 2.52   8 2.52  11 2.52

   8  0.375  0.875  0.410-  28 2.52  25 2.52  24 2.52   4 2.52   7 2.52  12 2.52   5 2.52  21 2.52

   9  0.625  0.125  0.410-  26 2.50  29 2.52  30 2.52  25 2.52  10 2.52  13 2.52   5 2.52  12 2.52

  10  0.625  0.375  0.410-  26 2.51  27 2.51  30 2.52  31 2.52   6 2.52   9 2.52  11 2.52  14 2.52

  11  0.625  0.625  0.410-  27 2.50  32 2.52  31 2.52  28 2.52   7 2.52  10 2.52  12 2.52  15 2.52

  12  0.625  0.875  0.410-  29 2.52  32 2.52  28 2.52  25 2.52  11 2.52  16 2.52   8 2.52   9 2.52

  13  0.875  0.125  0.410-  30 2.52  18 2.52  29 2.52  14 2.52   9 2.52  16 2.52   1 2.52  17 2.52

  14  0.875  0.375  0.410-  31 2.52  30 2.52  19 2.52  18 2.52  13 2.52  15 2.52  10 2.52   2 2.52

  15  0.875  0.625  0.410-  31 2.52  19 2.52  32 2.52  11 2.52  14 2.52  16 2.52   3 2.52  20 2.52

  16  0.875  0.875  0.410-  12 2.52  15 2.52  13 2.52   4 2.52  17 2.52  32 2.52  29 2.52  20 2.52

  17  0.000  0.000  0.470-  21 2.52   1 2.52   4 2.52  18 2.52  13 2.52  16 2.52  20 2.52  29 2.52
                            36 2.54  45 2.55  48 2.55  33 2.57
  18  0.000  0.250  0.470-  22 2.51   1 2.52   2 2.52  13 2.52  17 2.52  14 2.52  19 2.52  30 2.52
                            46 2.54  45 2.55  33 2.56  34 2.56
  19  0.000  0.500  0.470-  23 2.51   3 2.52   2 2.52  20 2.52  15 2.52  14 2.52  18 2.52  31 2.52
                            46 2.54  47 2.55  35 2.56  34 2.56
  20  0.000  0.750  0.470-  24 2.52   3 2.52   4 2.52  19 2.52  15 2.52  16 2.52  17 2.52  32 2.52
                            36 2.55  47 2.55  48 2.55  35 2.57
  21  0.250  0.000  0.470-  22 2.51  17 2.52   1 2.52   4 2.52   5 2.52   8 2.52  25 2.52  24 2.52
                            40 2.54  36 2.55  33 2.56  37 2.56
  22  0.249  0.249  0.469-  38 2.50   1 2.50   5 2.51   2 2.51  21 2.51  18 2.51   6 2.52  26 2.54
                            23 2.54  33 2.55  37 2.55  34 2.55
  23  0.249  0.501  0.469-  38 2.50   3 2.50   7 2.51   2 2.51  19 2.51  24 2.51   6 2.52  27 2.54
                            22 2.54  35 2.55  39 2.55  34 2.56
  24  0.250  0.750  0.470-  23 2.51  20 2.52   3 2.52   4 2.52   7 2.52   8 2.52  28 2.52  21 2.52
                            40 2.54  36 2.55  35 2.56  39 2.56
  25  0.500  0.000  0.470-  26 2.51   5 2.52   9 2.52   8 2.52  29 2.52  12 2.52  21 2.52  28 2.52
                            40 2.54  44 2.54  41 2.56  37 2.56
  26  0.501  0.249  0.469-  38 2.50   9 2.50  10 2.51   5 2.51  30 2.51  25 2.51   6 2.52  22 2.54
                            27 2.54  41 2.55  42 2.55  37 2.55
  27  0.501  0.501  0.469-  38 2.50  11 2.50  10 2.51   7 2.51  31 2.51  28 2.51   6 2.52  23 2.54
                            26 2.54  43 2.55  42 2.55  39 2.55
  28  0.500  0.750  0.470-  27 2.51   7 2.52  11 2.52   8 2.52  32 2.52  12 2.52  24 2.52  25 2.52
                            40 2.54  44 2.54  43 2.56  39 2.56
  29  0.750  0.000  0.470-   9 2.52  12 2.52  25 2.52  30 2.52  13 2.52  16 2.52  32 2.52  17 2.52
                            44 2.54  45 2.55  48 2.55  41 2.56
  30  0.750  0.250  0.470-  26 2.51   9 2.52  10 2.52  13 2.52  14 2.52  29 2.52  31 2.52  18 2.52
                            46 2.55  45 2.55  41 2.56  42 2.56
  31  0.750  0.500  0.470-  27 2.51  10 2.52  11 2.52  14 2.52  15 2.52  32 2.52  30 2.52  19 2.52
                            46 2.55  47 2.55  43 2.56  42 2.56
  32  0.750  0.750  0.470-  11 2.52  12 2.52  28 2.52  31 2.52  15 2.52  16 2.52  29 2.52  20 2.52
                            44 2.55  47 2.55  48 2.55  43 2.56
  33  0.126  0.126  0.531-  50 2.51  53 2.51  34 2.51  37 2.51  49 2.52  45 2.53  54 2.53  36 2.53
                            22 2.55  21 2.56  18 2.56  17 2.57
  34  0.127  0.375  0.531-  38 2.51  33 2.51  35 2.51  51 2.52  50 2.52  46 2.54  54 2.54  55 2.54
                            22 2.55  23 2.56  19 2.56  18 2.56
  35  0.126  0.624  0.531-  51 2.51  56 2.51  39 2.51  34 2.51  52 2.52  55 2.53  47 2.53  36 2.53
                            23 2.55  24 2.56  19 2.56  20 2.57
  36  0.125  0.875  0.530-  56 2.52  53 2.52  49 2.52  52 2.52  40 2.52  48 2.52  33 2.53  35 2.53
                            17 2.54  20 2.55  21 2.55  24 2.55
  37  0.375  0.127  0.531-  38 2.51  33 2.51  41 2.51  57 2.52  53 2.52  40 2.54  54 2.54  58 2.54
                            22 2.55  26 2.55  25 2.56  21 2.56
  38  0.375  0.375  0.527-  27 2.50  23 2.50  26 2.50  22 2.50  34 2.51  37 2.51  39 2.51  42 2.51
                            55 2.63  54 2.63  58 2.63  59 2.63
  39  0.375  0.623  0.531-  38 2.51  35 2.51  43 2.51  60 2.52  56 2.52  40 2.54  55 2.54  59 2.54
                            23 2.55  27 2.55  28 2.56  24 2.56
  40  0.375  0.875  0.530-  57 2.52  60 2.52  56 2.52  53 2.52  36 2.52  44 2.52  37 2.54  39 2.54
                            21 2.54  24 2.54  25 2.54  28 2.54
  41  0.624  0.126  0.531-  62 2.51  57 2.51  42 2.51  37 2.51  61 2.52  58 2.53  44 2.53  45 2.53
                            26 2.55  30 2.56  25 2.56  29 2.56
  42  0.623  0.375  0.531-  38 2.51  41 2.51  43 2.51  63 2.52  62 2.52  46 2.54  59 2.54  58 2.54
                            27 2.55  26 2.55  31 2.56  30 2.56
  43  0.624  0.624  0.531-  63 2.51  60 2.51  42 2.51  39 2.51  64 2.52  59 2.53  47 2.53  44 2.53
                            27 2.55  31 2.56  28 2.56  32 2.56
  44  0.625  0.875  0.530-  60 2.52  57 2.52  61 2.52  64 2.52  40 2.52  48 2.52  41 2.53  43 2.53
                            28 2.54  25 2.54  29 2.54  32 2.55
  45  0.875  0.125  0.530-  62 2.51  49 2.52  61 2.52  50 2.52  46 2.52  48 2.52  41 2.53  33 2.53
                            30 2.55  17 2.55  18 2.55  29 2.55
  46  0.875  0.375  0.530-  63 2.52  62 2.52  50 2.52  51 2.52  45 2.52  47 2.52  34 2.54  42 2.54
                            18 2.54  19 2.54  30 2.55  31 2.55
  47  0.875  0.625  0.530-  63 2.51  52 2.52  64 2.52  51 2.52  46 2.52  48 2.52  43 2.53  35 2.53
                            19 2.55  31 2.55  20 2.55  32 2.55
  48  0.875  0.875  0.531-  64 2.52  49 2.52  61 2.52  52 2.52  36 2.52  45 2.52  47 2.52  44 2.52
                            32 2.55  29 2.55  20 2.55  17 2.55
  49  1.000  0.000  0.590-  48 2.52  33 2.52  45 2.52  36 2.52  53 2.52  61 2.52  52 2.52  50 2.53

  50  0.000  0.250  0.590-  33 2.51  51 2.52  34 2.52  46 2.52  45 2.52  54 2.52  62 2.52  49 2.53

  51  0.000  0.500  0.590-  35 2.51  50 2.52  34 2.52  46 2.52  55 2.52  47 2.52  63 2.52  52 2.53

  52  0.000  0.750  0.590-  48 2.52  35 2.52  47 2.52  36 2.52  56 2.52  64 2.52  49 2.52  51 2.53

  53  0.250  1.000  0.590-  33 2.51  57 2.52  36 2.52  40 2.52  54 2.52  56 2.52  37 2.52  49 2.52

  54  0.250  0.250  0.592-  65 2.12  50 2.52  53 2.52  55 2.53  33 2.53  58 2.53  34 2.54  37 2.54
                            38 2.63
  55  0.250  0.500  0.592-  65 2.11  51 2.52  56 2.52  54 2.53  35 2.53  59 2.53  34 2.54  39 2.54
                            38 2.63
  56  0.250  0.750  0.590-  35 2.51  60 2.52  36 2.52  40 2.52  55 2.52  53 2.52  39 2.52  52 2.52

  57  0.500  1.000  0.590-  41 2.51  53 2.52  40 2.52  44 2.52  58 2.52  60 2.52  37 2.52  61 2.52

  58  0.501  0.249  0.591-  65 2.10  62 2.52  57 2.52  41 2.53  54 2.53  59 2.54  42 2.54  37 2.54
                            38 2.63
  59  0.501  0.501  0.591-  65 2.10  63 2.52  60 2.52  43 2.53  55 2.53  58 2.54  42 2.54  39 2.54
                            38 2.63
  60  0.500  0.750  0.590-  43 2.51  56 2.52  44 2.52  40 2.52  59 2.52  57 2.52  39 2.52  64 2.52

  61  0.750  0.000  0.590-  41 2.52  48 2.52  45 2.52  44 2.52  62 2.52  49 2.52  57 2.52  64 2.53

  62  0.751  0.250  0.590-  41 2.51  45 2.51  46 2.52  63 2.52  58 2.52  50 2.52  42 2.52  61 2.52

  63  0.751  0.500  0.590-  43 2.51  47 2.51  46 2.52  62 2.52  59 2.52  51 2.52  42 2.52  64 2.52

  64  0.750  0.750  0.590-  43 2.52  48 2.52  47 2.52  44 2.52  63 2.52  60 2.52  52 2.52  61 2.53

  65  0.377  0.375  0.629-  66 1.24  59 2.10  58 2.10  55 2.11  54 2.12
  66  0.379  0.375  0.670-  65 1.24
 
  LATTYP: Found a simple tetragonal cell.
 ALAT       =    10.0912000000
 C/A-ratio  =     2.9728872681
  
  Lattice vectors:
  
 A1 = (  10.0912000000,   0.0000000000,   0.0000000000)
 A2 = (   0.0000000000,  10.0912000000,   0.0000000000)
 A3 = (   0.0000000000,   0.0000000000,  30.0000000000)


Analysis of symmetry for initial positions (statically):
=====================================================================
 Subroutine PRICEL returns:
 Original cell was already a primitive cell.
 

 Routine SETGRP: Setting up the symmetry group for a 
 simple tetragonal supercell.


 Subroutine GETGRP returns: Found  1 space group operations
 (whereof  1 operations were pure point group operations)
 out of a pool of 16 trial point group operations.


The static configuration has the point symmetry C_1 .


Analysis of symmetry for dynamics (positions and initial velocities):
=====================================================================
 Subroutine PRICEL returns:
 Original cell was already a primitive cell.
 

 Routine SETGRP: Setting up the symmetry group for a 
 simple tetragonal supercell.


 Subroutine GETGRP returns: Found  1 space group operations
 (whereof  1 operations were pure point group operations)
 out of a pool of 16 trial point group operations.


The dynamic configuration has the point symmetry C_1 .


Analysis of constrained symmetry for selective dynamics:
=====================================================================
 Subroutine PRICEL returns:
 Original cell was already a primitive cell.
 

 Routine SETGRP: Setting up the symmetry group for a 
 simple tetragonal supercell.


 Subroutine GETGRP returns: Found  1 space group operations
 (whereof  1 operations were pure point group operations)
 out of a pool of 16 trial point group operations.


The constrained configuration has the point symmetry C_1 .


Analysis of structural, dynamic, and magnetic symmetry:
=====================================================================
 Subroutine PRICEL returns:
 Original cell was already a primitive cell.
 

 Routine SETGRP: Setting up the symmetry group for a 
 simple tetragonal supercell.


 Subroutine GETGRP returns: Found  1 space group operations
 (whereof  1 operations were pure point group operations)
 out of a pool of 16 trial point group operations.


The magnetic configuration has the point symmetry C_1 .


 Subroutine INISYM returns: Found  1 space group operations
 (whereof  1 operations are pure point group operations),
 and found     1 'primitive' translations

 
 
 KPOINTS: K-Point Grid                            

Automatic generation of k-mesh.
Space group operators:
 irot       det(A)        alpha          n_x          n_y          n_z        tau_x        tau_y        tau_z
    1     1.000000     0.000000     1.000000     0.000000     0.000000     0.000000     0.000000     0.000000
 
 Subroutine IBZKPT returns following result:
 ===========================================
 
 Found      8 irreducible k-points:
 
 Following reciprocal coordinates:
            Coordinates               Weight
  0.125000  0.125000  0.000000      2.000000
  0.375000  0.125000  0.000000      2.000000
 -0.375000  0.125000  0.000000      2.000000
 -0.125000  0.125000  0.000000      2.000000
  0.125000  0.375000  0.000000      2.000000
  0.375000  0.375000  0.000000      2.000000
 -0.375000  0.375000  0.000000      2.000000
 -0.125000  0.375000  0.000000      2.000000
 
 Following cartesian coordinates:
            Coordinates               Weight
  0.012387  0.012387  0.000000      2.000000
  0.037161  0.012387  0.000000      2.000000
 -0.037161  0.012387  0.000000      2.000000
 -0.012387  0.012387  0.000000      2.000000
  0.012387  0.037161  0.000000      2.000000
  0.037161  0.037161  0.000000      2.000000
 -0.037161  0.037161  0.000000      2.000000
 -0.012387  0.037161  0.000000      2.000000
 


--------------------------------------------------------------------------------------------------------




 Dimension of arrays:
   k-points           NKPTS =      8   k-points in BZ     NKDIM =      8   number of bands    NBANDS=    576
   number of dos      NEDOS =   1200   number of ions     NIONS =     66
   non local maximal  LDIM  =      6   non local SUM 2l+1 LMDIM =     18
   total plane-waves  NPLWV = 960400
   max r-space proj   IRMAX =   6495   max aug-charges    IRDMAX=   9304
   dimension x,y,z NGX =    70 NGY =   70 NGZ =  196
   dimension x,y,z NGXF=   140 NGYF=  140 NGZF=  392
   support grid    NGXF=   140 NGYF=  140 NGZF=  392
   ions per type =              64   1   1
   NGX,Y,Z   is equivalent  to a cutoff of  11.53, 11.53, 10.86 a.u.
   NGXF,Y,Z  is equivalent  to a cutoff of  23.06, 23.06, 21.72 a.u.

 SYSTEM =  Pd_100_surface                          
 POSCAR =  Cu N O                                  

 Startparameter for this run:
   NWRITE =      2    write-flag & timer
   PREC   = accura    normal or accurate (medium, high low for compatibility)
   ISTART =      0    job   : 0-new  1-cont  2-samecut
   ICHARG =      2    charge: 1-file 2-atom 10-const
   ISPIN  =      2    spin polarized calculation?
   LNONCOLLINEAR =      F non collinear calculations
   LSORBIT =      F    spin-orbit coupling
   INIWAV =      1    electr: 0-lowe 1-rand  2-diag
   LASPH  =      F    aspherical Exc in radial PAW
   METAGGA=      F    non-selfconsistent MetaGGA calc.

 Electronic Relaxation 1
   ENCUT  =  400.0 eV  29.40 Ry    5.42 a.u.  16.46 16.46 48.92*2*pi/ulx,y,z
   ENINI  =  400.0     initial cutoff
   ENAUG  =  627.1 eV  augmentation charge cutoff
   NELM   =    100;   NELMIN=  2; NELMDL=  0     # of ELM steps 
   EDIFF  = 0.1E-04   stopping-criterion for ELM
   LREAL  =      T    real-space projection
   NLSPLINE    = F    spline interpolate recip. space projectors
   LCOMPAT=      F    compatible to vasp.4.4
   GGA_COMPAT  = T    GGA compatible to vasp.4.4-vasp.4.6
   LMAXPAW     = -100 max onsite density
   LMAXMIX     =    2 max onsite mixed and CHGCAR
   VOSKOWN=      0    Vosko Wilk Nusair interpolation
   ROPT   =   -0.00025  -0.00025  -0.00025
 Ionic relaxation
   EDIFFG = -.2E-01   stopping-criterion for IOM
   NSW    =    500    number of steps for IOM
   NBLOCK =      1;   KBLOCK =    500    inner block; outer block 
   IBRION =      2    ionic relax: 0-MD 1-quasi-New 2-CG
   NFREE  =      1    steps in history (QN), initial steepest desc. (CG)
   ISIF   =      2    stress and relaxation
   IWAVPR =     11    prediction:  0-non 1-charg 2-wave 3-comb
   ISYM   =      2    0-nonsym 1-usesym 2-fastsym
   LCORR  =      T    Harris-Foulkes like correction to forces

   POTIM  = 0.5000    time-step for ionic-motion
   TEIN   =    0.0    initial temperature
   TEBEG  =    0.0;   TEEND  =   0.0 temperature during run
   SMASS  =  -3.00    Nose mass-parameter (am)
   estimated Nose-frequenzy (Omega)   =  0.10E-29 period in steps =****** mass=  -0.233E-26a.u.
   SCALEE = 1.0000    scale energy and forces
   NPACO  =    256;   APACO  = 16.0  distance and # of slots for P.C.
   PSTRESS=    0.0 pullay stress

  Mass of Ions in am
   POMASS =  63.55 14.00 16.00
  Ionic Valenz
   ZVAL   =  11.00  5.00  6.00
  Atomic Wigner-Seitz radii
   RWIGS  =  -1.00 -1.00 -1.00
  virtual crystal weights 
   VCA    =   1.00  1.00  1.00
   NELECT =     715.0000    total number of electrons
   NUPDOWN=      -1.0000    fix difference up-down

 DOS related values:
   EMIN   =  10.00;   EMAX   =-10.00  energy-range for DOS
   EFERMI =   0.00
   ISMEAR =     1;   SIGMA  =   0.20  broadening in eV -4-tet -1-fermi 0-gaus

 Electronic relaxation 2 (details)
   IALGO  =     68    algorithm
   LDIAG  =      T    sub-space diagonalisation (order eigenvalues)
   LSUBROT=      F    optimize rotation matrix (better conditioning)
   TURBO    =      0    0=normal 1=particle mesh
   IRESTART =      0    0=no restart 2=restart with 2 vectors
   NREBOOT  =      0    no. of reboots
   NMIN     =      0    reboot dimension
   EREF     =   0.00    reference energy to select bands
   IMIX   =      4    mixing-type and parameters
     AMIX     =   0.40;   BMIX     =  1.00
     AMIX_MAG =   1.60;   BMIX_MAG =  1.00
     AMIN     =   0.10
     WC   =   100.;   INIMIX=   1;  MIXPRE=   1;  MAXMIX= -45

 Intra band minimization:
   WEIMIN = 0.0010     energy-eigenvalue tresh-hold
   EBREAK =  0.43E-08  absolut break condition
   DEPER  =   0.30     relativ break condition  

   TIME   =   0.40     timestep for ELM

  volume/ion in A,a.u.               =      46.29       312.36
  Fermi-wavevector in a.u.,A,eV,Ry     =   1.008884  1.906514 13.848647  1.017847
  Thomas-Fermi vector in A             =   2.141778
 
 Write flags
   LWAVE        =      T    write WAVECAR
   LDOWNSAMPLE  =      F    k-point downsampling of WAVECAR
   LCHARG       =      F    write CHGCAR
   LVTOT        =      F    write LOCPOT, total local potential
   LVHAR        =      F    write LOCPOT, Hartree potential only
   LELF         =      F    write electronic localiz. function (ELF)
   LORBIT       =     11    0 simple, 1 ext, 2 COOP (PROOUT), +10 PAW based schemes


 Dipole corrections
   LMONO  =      F    monopole corrections only (constant potential shift)
   LDIPOL =      T    correct potential (dipole corrections)
   IDIPOL =      3    1-x, 2-y, 3-z, 4-all directions 
   EPSILON=  1.0000000 bulk dielectric constant

 Exchange correlation treatment:
   GGA     =    --    GGA type
   LEXCH   =     8    internal setting for exchange type
   VOSKOWN=      0    Vosko Wilk Nusair interpolation
   LHFCALC =     F    Hartree Fock is set to
   LHFONE  =     F    Hartree Fock one center treatment
   AEXX    =    0.0000 exact exchange contribution

 Linear response parameters
   LEPSILON=     F    determine dielectric tensor
   LRPA    =     F    only Hartree local field effects (RPA)
   LNABLA  =     F    use nabla operator in PAW spheres
   LVEL    =     F    velocity operator in full k-point grid
   LINTERFAST=   F  fast interpolation
   KINTER  =     0    interpolate to denser k-point grid
   CSHIFT  =0.1000    complex shift for real part using Kramers Kronig
   OMEGAMAX=  -1.0    maximum frequency
   DEG_THRESHOLD= 0.2000000E-02 threshold for treating states as degnerate
   RTIME   =   -0.100 relaxation time in fs
  (WPLASMAI=    0.000 imaginary part of plasma frequency in eV, 0.658/RTIME)
   DFIELD  = 0.0000000 0.0000000 0.0000000 field for delta impulse in time
 
 Orbital magnetization related:
   ORBITALMAG=     F  switch on orbital magnetization
   LCHIMAG   =     F  perturbation theory with respect to B field
   DQ        =  0.001000  dq finite difference perturbation B field
   LLRAUG    =     F  two centre corrections for induced B field



--------------------------------------------------------------------------------------------------------


 conjugate gradient relaxation of ions
   using selective dynamics as specified on POSCAR
 charge density and potential will be updated during run
 spin polarized calculation
 RMM-DIIS sequential band-by-band and
  variant of blocked Davidson during initial phase
 perform sub-space diagonalisation
    before iterative eigenvector-optimisation
 modified Broyden-mixing scheme, WC =      100.0
 initial mixing is a Kerker type mixing with AMIX =  0.4000 and BMIX =      1.0000
 Hartree-type preconditioning will be used
 using additional bands          218
 real space projection scheme for non local part
 use partial core corrections
 calculate Harris-corrections to forces 
   (improved forces if not selfconsistent)
 use gradient corrections 
 use of overlap-Matrix (Vanderbilt PP)
 Methfessel and Paxton  Order N= 1 SIGMA  =   0.20


--------------------------------------------------------------------------------------------------------


  energy-cutoff  :      400.00
  volume of cell :     3054.97
      direct lattice vectors                 reciprocal lattice vectors
    10.091200000  0.000000000  0.000000000     0.099096242  0.000000000  0.000000000
     0.000000000 10.091200000  0.000000000     0.000000000  0.099096242  0.000000000
     0.000000000  0.000000000 30.000000000     0.000000000  0.000000000  0.033333333

  length of vectors
    10.091200000 10.091200000 30.000000000     0.099096242  0.099096242  0.033333333


 
 k-points in units of 2pi/SCALE and weight: K-Point Grid                            
   0.01238703  0.01238703  0.00000000       0.125
   0.03716109  0.01238703  0.00000000       0.125
  -0.03716109  0.01238703  0.00000000       0.125
  -0.01238703  0.01238703  0.00000000       0.125
   0.01238703  0.03716109  0.00000000       0.125
   0.03716109  0.03716109  0.00000000       0.125
  -0.03716109  0.03716109  0.00000000       0.125
  -0.01238703  0.03716109  0.00000000       0.125
 
 k-points in reciprocal lattice and weights: K-Point Grid                            
   0.12500000  0.12500000  0.00000000       0.125
   0.37500000  0.12500000  0.00000000       0.125
  -0.37500000  0.12500000  0.00000000       0.125
  -0.12500000  0.12500000  0.00000000       0.125
   0.12500000  0.37500000  0.00000000       0.125
   0.37500000  0.37500000  0.00000000       0.125
  -0.37500000  0.37500000  0.00000000       0.125
  -0.12500000  0.37500000  0.00000000       0.125
 
 position of ions in fractional coordinates (direct lattice) 
   0.12499981  0.12499981  0.41047690
   0.12499981  0.37499944  0.41047690
   0.12499981  0.62499906  0.41047690
   0.12499981  0.87499868  0.41047690
   0.37499944  0.12499981  0.41047690
   0.37499944  0.37499944  0.41047690
   0.37499944  0.62499906  0.41047690
   0.37499944  0.87499868  0.41047690
   0.62499906  0.12499981  0.41047690
   0.62499906  0.37499944  0.41047690
   0.62499906  0.62499906  0.41047690
   0.62499906  0.87499868  0.41047690
   0.87499868  0.12499981  0.41047690
   0.87499868  0.37499944  0.41047690
   0.87499868  0.62499906  0.41047690
   0.87499868  0.87499868  0.41047690
   0.00009050  0.00000642  0.46992170
   0.00016448  0.24995335  0.46988127
   0.00017794  0.50001565  0.46987811
   0.00011034  0.74996624  0.46992318
   0.24991861  0.00005687  0.46991311
   0.24936581  0.24925133  0.46940218
   0.24937432  0.50078111  0.46940152
   0.24993720  0.74998602  0.46990843
   0.49995501  0.00007110  0.46990216
   0.50087790  0.24925296  0.46939444
   0.50088773  0.50076821  0.46939189
   0.49997709  0.74996943  0.46990215
   0.74989612  0.00005633  0.46991730
   0.74996447  0.24999773  0.46989749
   0.74998234  0.49998746  0.46989873
   0.74991795  0.74993747  0.46991402
   0.12613316  0.12612941  0.53100458
   0.12713356  0.37499254  0.53082114
   0.12618553  0.62387514  0.53099483
   0.12503078  0.87500655  0.53043987
   0.37500442  0.12692780  0.53066769
   0.37515504  0.37504534  0.52729865
   0.37506192  0.62318343  0.53065534
   0.37482184  0.87505974  0.53029623
   0.62401624  0.12605485  0.53091653
   0.62344832  0.37501392  0.53059568
   0.62408506  0.62398010  0.53090753
   0.62479032  0.87502358  0.53038974
   0.87506143  0.12509935  0.53043940
   0.87532210  0.37496335  0.53032787
   0.87511917  0.62483432  0.53043549
   0.87493095  0.87497080  0.53057210
   0.99997116  0.00005839  0.58971207
   0.00026333  0.25030046  0.58966977
   0.00032037  0.49960543  0.58966888
   0.00003232  0.74985437  0.58970387
   0.25011961  0.99997317  0.58966566
   0.24993439  0.24971995  0.59159610
   0.24997141  0.50045209  0.59157588
   0.25018492  0.75015851  0.58966076
   0.49957857  0.99993040  0.58962406
   0.50103083  0.24944918  0.59144914
   0.50110646  0.50071747  0.59143209
   0.49964415  0.75020726  0.58961352
   0.74978177  0.00014905  0.58967314
   0.75051376  0.25024661  0.58958893
   0.75057640  0.49971337  0.58958049
   0.74983443  0.74980324  0.58967669
   0.37697124  0.37526601  0.62852680
   0.37859640  0.37542806  0.66994726
 
 position of ions in cartesian coordinates  (Angst):
   1.26139810  1.26139810 12.31430703
   1.26139810  3.78419431 12.31430703
   1.26139810  6.30699051 12.31430703
   1.26139810  8.82978672 12.31430703
   3.78419431  1.26139810 12.31430703
   3.78419431  3.78419431 12.31430703
   3.78419431  6.30699051 12.31430703
   3.78419431  8.82978672 12.31430703
   6.30699051  1.26139810 12.31430703
   6.30699051  3.78419431 12.31430703
   6.30699051  6.30699051 12.31430703
   6.30699051  8.82978672 12.31430703
   8.82978672  1.26139810 12.31430703
   8.82978672  3.78419431 12.31430703
   8.82978672  6.30699051 12.31430703
   8.82978672  8.82978672 12.31430703
   0.00091322  0.00006479 14.09765108
   0.00165980  2.52232922 14.09643805
   0.00179566  5.04575789 14.09634336
   0.00111343  7.56805936 14.09769526
   2.52197869  0.00057388 14.09739341
   2.51640021  2.51524501 14.08206554
   2.51648619  5.05348231 14.08204552
   2.52216626  7.56825896 14.09725279
   5.04514601  0.00071752 14.09706475
   5.05445910  2.51526148 14.08183330
   5.05455827  5.05335218 14.08175681
   5.04536878  7.56809147 14.09706437
   7.56735173  0.00056843 14.09751894
   7.56804151  2.52277713 14.09692462
   7.56822175  5.04547344 14.09696200
   7.56757203  7.56776898 14.09742065
   1.27283499  1.27279710 15.93013746
   1.28293015  3.78412472 15.92463431
   1.27336339  6.29564877 15.92984479
   1.26171063  8.82986607 15.91319613
   3.78424458  1.28085385 15.92003081
   3.78576454  3.78465753 15.81895943
   3.78482488  6.28866864 15.91966012
   3.78240211  8.83040282 15.90888687
   6.29707273  1.27204472 15.92749577
   6.29134170  3.78434045 15.91787052
   6.29776720  6.29670795 15.92722603
   6.30488410  8.83003794 15.91169221
   8.83041992  1.26240260 15.91318203
   8.83305040  3.78383017 15.90983624
   8.83100258  6.30532813 15.91306461
   8.82910325  8.82950533 15.91716301
  10.09090893  0.00058918 17.69136199
   0.00265727  2.52583203 17.69009321
   0.00323295  5.04161829 17.69006650
   0.00032614  7.56693046 17.69111601
   2.52400701 10.09092928 17.68996987
   2.52213796  2.51997395 17.74788309
   2.52251151  5.05016214 17.74727651
   2.52466611  7.56999952 17.68982278
   5.04134725 10.09049769 17.68872167
   5.05600235  2.51724160 17.74347414
   5.05676552  5.05284014 17.74296269
   5.04200901  7.57049151 17.68840564
   7.56619777  0.00150405 17.69019431
   7.57358441  2.52528856 17.68766778
   7.57421657  5.04270757 17.68741478
   7.56672921  7.56641441 17.69030080
   3.80409215  3.78688433 18.85580406
   3.82049198  3.78851964 20.09841765
 


--------------------------------------------------------------------------------------------------------


 k-point  1 :   0.1250 0.1250 0.0000  plane waves:   55537
 k-point  2 :   0.3750 0.1250 0.0000  plane waves:   55487
 k-point  3 :  -0.3750 0.1250 0.0000  plane waves:   55487
 k-point  4 :  -0.1250 0.1250 0.0000  plane waves:   55537
 k-point  5 :   0.1250 0.3750 0.0000  plane waves:   55487
 k-point  6 :   0.3750 0.3750 0.0000  plane waves:   55438
 k-point  7 :  -0.3750 0.3750 0.0000  plane waves:   55438
 k-point  8 :  -0.1250 0.3750 0.0000  plane waves:   55487

 maximum and minimum number of plane-waves per node :     55537    55438

 maximum number of plane-waves:     55537
 maximum index in each direction: 
   IXMAX=   16   IYMAX=   16   IZMAX=   48
   IXMIN=  -16   IYMIN=  -16   IZMIN=  -48


 serial   3D FFT for wavefunctions
 parallel 3D FFT for charge:
    minimum data exchange during FFTs selected (reduces bandwidth)


 total amount of memory used by VASP MPI-rank0   220008. kBytes
=======================================================================

   base      :      30000. kBytes
   nonlr-proj:      56615. kBytes
   fftplans  :       5709. kBytes
   grid      :      81838. kBytes
   one-center:       2052. kBytes
   wavefun   :      43794. kBytes
 
     INWAV:  cpu time    0.0000: real time    0.0000
 Broyden mixing: mesh for mixing (old mesh)
   NGX = 33   NGY = 33   NGZ = 97
  (NGX  =140   NGY  =140   NGZ  =392)
  gives a total of 105633 points

 initial charge density was supplied:
 charge density of overlapping atoms calculated
 number of electron     715.0000000 magnetization      66.0000000
 keeping initial charge density in first step


--------------------------------------------------------------------------------------------------------


 Maximum index for non-local projection operator         6255
 Maximum index for augmentation-charges          509 (set IRDMAX)


--------------------------------------------------------------------------------------------------------


 First call to EWALD:  gamma=   0.122
 Maximum number of real-space cells 4x 4x 2
 Maximum number of reciprocal cells 2x 2x 5

    FEWALD:  cpu time    0.0102: real time    0.0051


--------------------------------------- Iteration      1(   1)  ---------------------------------------


    POTLOK:  cpu time    0.4983: real time    0.4970
    SETDIJ:  cpu time    0.0554: real time    0.0301
     EDDAV:  cpu time  100.3711: real time   50.3149
       DOS:  cpu time    0.0273: real time    0.0137
    --------------------------------------------
      LOOP:  cpu time  100.9523: real time   50.8557

 eigenvalue-minimisations  : 18432
 total energy-change (2. order) : 0.5196946E+04  (-0.2600250E+05)
 number of electron     715.0000000 magnetization      66.0000000
 augmentation part      715.0000000 magnetization      66.0000000

 DIPCOR: dipole corrections for dipol
 direction  3 min pos     1,
 dipolmoment           0.000000      0.000000     -0.000040 electrons x Angstroem
 Tr[quadrupol]    -12617.221958

 energy correction for charged system         0.000000 eV
 dipol+quadrupol energy correction           -0.000000 eV
 added-field ion interaction          0.000129 eV  (added to PSCEN)


 Free energy of the ion-electron system (eV)
  ---------------------------------------------------
  alpha Z        PSCENC =      1006.32475041
  Ewald energy   TEWEN  =    586860.44864215
  -Hartree energ DENC   =   -671351.50459801
  -exchange      EXHF   =         0.00000000
  -V(xc)+E(xc)   XCENC  =      2971.00187333
  PAW double counting   =     79149.44203455   -85925.12063508
  entropy T*S    EENTRO =        -0.00153881
  eigenvalues    EBANDS =      2768.32799580
  atomic energy  EATOM  =     89718.02717123
  Solvation  Ediel_sol  =         0.00000000
  ---------------------------------------------------
  free energy    TOTEN  =      5196.94569557 eV

  energy without entropy =     5196.94723438  energy(sigma->0) =     5196.94620851


--------------------------------------------------------------------------------------------------------




--------------------------------------- Iteration      1(   2)  ---------------------------------------


     EDDAV:  cpu time  102.4812: real time   51.3724
       DOS:  cpu time    0.0051: real time    0.0026
    --------------------------------------------
      LOOP:  cpu time  102.4863: real time   51.3750

 eigenvalue-minimisations  : 18432
 total energy-change (2. order) :-0.5181502E+04  (-0.4876541E+04)
 number of electron     715.0000000 magnetization      66.0000000
 augmentation part      715.0000000 magnetization      66.0000000

 DIPCOR: dipole corrections for dipol
 direction  3 min pos     1,
 dipolmoment           0.000000      0.000000     -0.000040 electrons x Angstroem
 Tr[quadrupol]    -12617.221958

 energy correction for charged system         0.000000 eV
 dipol+quadrupol energy correction           -0.000000 eV
 added-field ion interaction          0.000129 eV  (added to PSCEN)


 Free energy of the ion-electron system (eV)
  ---------------------------------------------------
  alpha Z        PSCENC =      1006.32475041
  Ewald energy   TEWEN  =    586860.44864215
  -Hartree energ DENC   =   -671351.50459801
  -exchange      EXHF   =         0.00000000
  -V(xc)+E(xc)   XCENC  =      2971.00187333
  PAW double counting   =     79149.44203455   -85925.12063508
  entropy T*S    EENTRO =         0.01313280
  eigenvalues    EBANDS =     -2413.18864642
  atomic energy  EATOM  =     89718.02717123
  Solvation  Ediel_sol  =         0.00000000
  ---------------------------------------------------
  free energy    TOTEN  =        15.44372496 eV

  energy without entropy =       15.43059216  energy(sigma->0) =       15.43934736


--------------------------------------------------------------------------------------------------------




--------------------------------------- Iteration      1(   3)  ---------------------------------------


     EDDAV:  cpu time  178.8230: real time   89.6463
       DOS:  cpu time    0.0050: real time    0.0025
    --------------------------------------------
      LOOP:  cpu time  178.8280: real time   89.6488

 eigenvalue-minimisations  : 25920
 total energy-change (2. order) :-0.2844869E+03  (-0.2739623E+03)
 number of electron     715.0000000 magnetization      66.0000000
 augmentation part      715.0000000 magnetization      66.0000000

 DIPCOR: dipole corrections for dipol
 direction  3 min pos     1,
 dipolmoment           0.000000      0.000000     -0.000040 electrons x Angstroem
 Tr[quadrupol]    -12617.221958

 energy correction for charged system         0.000000 eV
 dipol+quadrupol energy correction           -0.000000 eV
 added-field ion interaction          0.000129 eV  (added to PSCEN)


 Free energy of the ion-electron system (eV)
  ---------------------------------------------------
  alpha Z        PSCENC =      1006.32475041
  Ewald energy   TEWEN  =    586860.44864215
  -Hartree energ DENC   =   -671351.50459801
  -exchange      EXHF   =         0.00000000
  -V(xc)+E(xc)   XCENC  =      2971.00187333
  PAW double counting   =     79149.44203455   -85925.12063508
  entropy T*S    EENTRO =         0.08275552
  eigenvalues    EBANDS =     -2697.74517845
  atomic energy  EATOM  =     89718.02717123
  Solvation  Ediel_sol  =         0.00000000
  ---------------------------------------------------
  free energy    TOTEN  =      -269.04318435 eV

  energy without entropy =     -269.12593987  energy(sigma->0) =     -269.07076953


--------------------------------------------------------------------------------------------------------




--------------------------------------- Iteration      1(   4)  ---------------------------------------


     EDDAV:  cpu time  130.4159: real time   65.7054
       DOS:  cpu time    0.0051: real time    0.0026
    --------------------------------------------
      LOOP:  cpu time  130.4210: real time   65.7080

 eigenvalue-minimisations  : 21312
 total energy-change (2. order) :-0.7183790E+01  (-0.7176727E+01)
 number of electron     715.0000000 magnetization      66.0000000
 augmentation part      715.0000000 magnetization      66.0000000

 DIPCOR: dipole corrections for dipol
 direction  3 min pos     1,
 dipolmoment           0.000000      0.000000     -0.000040 electrons x Angstroem
 Tr[quadrupol]    -12617.221958

 energy correction for charged system         0.000000 eV
 dipol+quadrupol energy correction           -0.000000 eV
 added-field ion interaction          0.000129 eV  (added to PSCEN)


 Free energy of the ion-electron system (eV)
  ---------------------------------------------------
  alpha Z        PSCENC =      1006.32475041
  Ewald energy   TEWEN  =    586860.44864215
  -Hartree energ DENC   =   -671351.50459801
  -exchange      EXHF   =         0.00000000
  -V(xc)+E(xc)   XCENC  =      2971.00187333
  PAW double counting   =     79149.44203455   -85925.12063508
  entropy T*S    EENTRO =         0.08652376
  eigenvalues    EBANDS =     -2704.93273661
  atomic energy  EATOM  =     89718.02717123
  Solvation  Ediel_sol  =         0.00000000
  ---------------------------------------------------
  free energy    TOTEN  =      -276.22697428 eV

  energy without entropy =     -276.31349803  energy(sigma->0) =     -276.25581553


--------------------------------------------------------------------------------------------------------




--------------------------------------- Iteration      1(   5)  ---------------------------------------


     EDDAV:  cpu time  167.4588: real time   83.9909
       DOS:  cpu time    0.0051: real time    0.0025
    CHARGE:  cpu time    2.4185: real time    2.0801
    MIXING:  cpu time    0.0376: real time    0.0189
    --------------------------------------------
      LOOP:  cpu time  169.9200: real time   86.0925

 eigenvalue-minimisations  : 24576
 total energy-change (2. order) :-0.1928695E+00  (-0.1927681E+00)
 number of electron     715.0000953 magnetization      62.3446411
 augmentation part      417.6323792 magnetization      61.0918059

 DIPCOR: dipole corrections for dipol
 direction  3 min pos     1,
 dipolmoment           0.000000      0.000000     -0.000040 electrons x Angstroem
 Tr[quadrupol]    -12617.221958

 energy correction for charged system         0.000000 eV
 dipol+quadrupol energy correction           -0.000000 eV
 added-field ion interaction          0.000129 eV  (added to PSCEN)


 Broyden mixing:
  rms(total) = 0.74769E+01    rms(broyden)= 0.74762E+01
  rms(prec ) = 0.76421E+01
  weight for this iteration     100.00

 Free energy of the ion-electron system (eV)
  ---------------------------------------------------
  alpha Z        PSCENC =      1006.32475041
  Ewald energy   TEWEN  =    586860.44864215
  -Hartree energ DENC   =   -671351.50459801
  -exchange      EXHF   =         0.00000000
  -V(xc)+E(xc)   XCENC  =      2971.00187333
  PAW double counting   =     79149.44203455   -85925.12063508
  entropy T*S    EENTRO =         0.08664788
  eigenvalues    EBANDS =     -2705.12573027
  atomic energy  EATOM  =     89718.02717123
  Solvation  Ediel_sol  =         0.00000000
  ---------------------------------------------------
  free energy    TOTEN  =      -276.41984382 eV

  energy without entropy =     -276.50649170  energy(sigma->0) =     -276.44872645


--------------------------------------------------------------------------------------------------------




--------------------------------------- Iteration      1(   6)  ---------------------------------------


    POTLOK:  cpu time    0.3574: real time    0.2505
    SETDIJ:  cpu time    0.0323: real time    0.0205
    EDDIAG:  cpu time   13.5292: real time    6.8383
  RMM-DIIS:  cpu time   25.6055: real time   13.0517
    ORTHCH:  cpu time    4.0872: real time    2.0519
       DOS:  cpu time    0.0052: real time    0.0026
    CHARGE:  cpu time    2.3389: real time    2.0278
    MIXING:  cpu time    0.0138: real time    0.0070
    --------------------------------------------
      LOOP:  cpu time   45.9697: real time   24.2502

 eigenvalue-minimisations  : 18476
 total energy-change (2. order) : 0.4779524E+02  (-0.5614722E+02)
 number of electron     715.0001064 magnetization      60.0642950
 augmentation part      473.6766963 magnetization      45.1372104

 DIPCOR: dipole corrections for dipol
 direction  3 min pos     1,
 dipolmoment           0.000000      0.000000      0.486778 electrons x Angstroem
 Tr[quadrupol]    -12614.757459

 energy correction for charged system         0.000000 eV
 dipol+quadrupol energy correction           -0.007018 eV
 added-field ion interaction         -1.559025 eV  (added to PSCEN)


 Broyden mixing:
  rms(total) = 0.44337E+01    rms(broyden)= 0.44313E+01
  rms(prec ) = 0.46182E+01
  weight for this iteration     100.00

 eigenvalues of (default mixing * dielectric matrix)
  average eigenvalue GAMMA=   0.7564
  0.7564

 Free energy of the ion-electron system (eV)
  ---------------------------------------------------
  alpha Z        PSCENC =      1004.75857904
  Ewald energy   TEWEN  =    586860.44864215
  -Hartree energ DENC   =   -669511.96324421
  -exchange      EXHF   =         0.00000000
  -V(xc)+E(xc)   XCENC  =      2909.70567519
  PAW double counting   =     80324.23703624   -86755.71630722
  entropy T*S    EENTRO =        -0.04044083
  eigenvalues    EBANDS =     -4778.08171333
  atomic energy  EATOM  =     89718.02717123
  Solvation  Ediel_sol  =         0.00000000
  ---------------------------------------------------
  free energy    TOTEN  =      -228.62460174 eV

  energy without entropy =     -228.58416091  energy(sigma->0) =     -228.61112146


--------------------------------------------------------------------------------------------------------




--------------------------------------- Iteration      1(   7)  ---------------------------------------


    POTLOK:  cpu time    0.3661: real time    0.2122
    SETDIJ:  cpu time    0.0217: real time    0.0131
    EDDIAG:  cpu time   13.6070: real time    6.8460
  RMM-DIIS:  cpu time   26.0561: real time   13.0613
    ORTHCH:  cpu time    4.0898: real time    2.0518
       DOS:  cpu time    0.0054: real time    0.0027
    CHARGE:  cpu time    2.3369: real time    2.0212
    MIXING:  cpu time    0.0049: real time    0.0025
    --------------------------------------------
      LOOP:  cpu time   46.4879: real time   24.2108

 eigenvalue-minimisations  : 18520
 total energy-change (2. order) : 0.4525180E+02  (-0.1228705E+02)
 number of electron     715.0001014 magnetization      57.4451600
 augmentation part      448.8014136 magnetization      40.9242315

 DIPCOR: dipole corrections for dipol
 direction  3 min pos     1,
 dipolmoment           0.000000      0.000000     -0.481825 electrons x Angstroem
 Tr[quadrupol]    -12622.742994

 energy correction for charged system         0.000000 eV
 dipol+quadrupol energy correction           -0.006875 eV
 added-field ion interaction          1.543162 eV  (added to PSCEN)


 Broyden mixing:
  rms(total) = 0.20423E+01    rms(broyden)= 0.20389E+01
  rms(prec ) = 0.21679E+01
  weight for this iteration     100.00

 eigenvalues of (default mixing * dielectric matrix)
  average eigenvalue GAMMA=   0.7922
  1.0451  0.5393

 Free energy of the ion-electron system (eV)
  ---------------------------------------------------
  alpha Z        PSCENC =      1007.86090802
  Ewald energy   TEWEN  =    586860.44864215
  -Hartree energ DENC   =   -670612.68236864
  -exchange      EXHF   =         0.00000000
  -V(xc)+E(xc)   XCENC  =      2948.80053859
  PAW double counting   =     82252.51363029   -89017.33338536
  entropy T*S    EENTRO =         0.00591854
  eigenvalues    EBANDS =     -3341.01385583
  atomic energy  EATOM  =     89718.02717123
  Solvation  Ediel_sol  =         0.00000000
  ---------------------------------------------------
  free energy    TOTEN  =      -183.37280100 eV

  energy without entropy =     -183.37871954  energy(sigma->0) =     -183.37477385


--------------------------------------------------------------------------------------------------------




--------------------------------------- Iteration      1(   8)  ---------------------------------------


    POTLOK:  cpu time    0.3723: real time    0.2493
    SETDIJ:  cpu time    0.0245: real time    0.0145
    EDDIAG:  cpu time   13.2936: real time    6.6635
  RMM-DIIS:  cpu time   25.1565: real time   13.1927
    ORTHCH:  cpu time    4.1677: real time    2.0924
       DOS:  cpu time    0.0052: real time    0.0026
    CHARGE:  cpu time    2.3941: real time    2.0823
    MIXING:  cpu time    0.0060: real time    0.0030
    --------------------------------------------
      LOOP:  cpu time   45.4200: real time   24.3003

 eigenvalue-minimisations  : 18529
 total energy-change (2. order) : 0.9150845E+01  (-0.1349035E+01)
 number of electron     715.0001005 magnetization      55.4815788
 augmentation part      449.0573091 magnetization      36.9962996

 DIPCOR: dipole corrections for dipol
 direction  3 min pos     1,
 dipolmoment           0.000000      0.000000      0.954090 electrons x Angstroem
 Tr[quadrupol]    -12623.755516

 energy correction for charged system         0.000000 eV
 dipol+quadrupol energy correction           -0.026959 eV
 added-field ion interaction         -3.055703 eV  (added to PSCEN)


 Broyden mixing:
  rms(total) = 0.19869E+01    rms(broyden)= 0.19856E+01
  rms(prec ) = 0.23226E+01
  weight for this iteration     100.00

 eigenvalues of (default mixing * dielectric matrix)
  average eigenvalue GAMMA=   0.6618
  1.0987  0.5582  0.3284

 Free energy of the ion-electron system (eV)
  ---------------------------------------------------
  alpha Z        PSCENC =      1003.24195934
  Ewald energy   TEWEN  =    586860.44864215
  -Hartree energ DENC   =   -670658.18759685
  -exchange      EXHF   =         0.00000000
  -V(xc)+E(xc)   XCENC  =      2955.48312816
  PAW double counting   =     83203.10797642   -90024.75392311
  entropy T*S    EENTRO =         0.02259560
  eigenvalues    EBANDS =     -3231.61190945
  atomic energy  EATOM  =     89718.02717123
  Solvation  Ediel_sol  =         0.00000000
  ---------------------------------------------------
  free energy    TOTEN  =      -174.22195649 eV

  energy without entropy =     -174.24455209  energy(sigma->0) =     -174.22948836


--------------------------------------------------------------------------------------------------------




--------------------------------------- Iteration      1(   9)  ---------------------------------------


    POTLOK:  cpu time    0.3638: real time    0.2228
    SETDIJ:  cpu time    0.0268: real time    0.0180
    EDDIAG:  cpu time   13.0329: real time    6.5328
  RMM-DIIS:  cpu time   25.2984: real time   13.1561
    ORTHCH:  cpu time    4.0885: real time    2.0533
       DOS:  cpu time    0.0051: real time    0.0025
    CHARGE:  cpu time    2.6018: real time    2.2870
    MIXING:  cpu time    0.0049: real time    0.0025
    --------------------------------------------
      LOOP:  cpu time   45.4223: real time   24.2750

 eigenvalue-minimisations  : 18482
 total energy-change (2. order) : 0.1171585E+02  (-0.6845679E+00)
 number of electron     715.0001018 magnetization      50.1704247
 augmentation part      450.1244392 magnetization      32.0202373

 DIPCOR: dipole corrections for dipol
 direction  3 min pos     1,
 dipolmoment           0.000000      0.000000     -0.183246 electrons x Angstroem
 Tr[quadrupol]    -12626.135274

 energy correction for charged system         0.000000 eV
 dipol+quadrupol energy correction           -0.000994 eV
 added-field ion interaction          0.586891 eV  (added to PSCEN)


 Broyden mixing:
  rms(total) = 0.14730E+01    rms(broyden)= 0.14723E+01
  rms(prec ) = 0.15409E+01
  weight for this iteration     100.00

 eigenvalues of (default mixing * dielectric matrix)
  average eigenvalue GAMMA=   0.7676
  1.2778  0.9541  0.5933  0.2454

 Free energy of the ion-electron system (eV)
  ---------------------------------------------------
  alpha Z        PSCENC =      1006.91051799
  Ewald energy   TEWEN  =    586860.44864215
  -Hartree energ DENC   =   -670738.52796024
  -exchange      EXHF   =         0.00000000
  -V(xc)+E(xc)   XCENC  =      2956.96680652
  PAW double counting   =     83778.44596018   -90628.59077453
  entropy T*S    EENTRO =        -0.00183816
  eigenvalues    EBANDS =     -3116.18463409
  atomic energy  EATOM  =     89718.02717123
  Solvation  Ediel_sol  =         0.00000000
  ---------------------------------------------------
  free energy    TOTEN  =      -162.50610894 eV

  energy without entropy =     -162.50427078  energy(sigma->0) =     -162.50549622


--------------------------------------------------------------------------------------------------------




--------------------------------------- Iteration      1(  10)  ---------------------------------------


    POTLOK:  cpu time    0.4178: real time    0.2462
    SETDIJ:  cpu time    0.0260: real time    0.0174
    EDDIAG:  cpu time   13.1336: real time    6.5833
  RMM-DIIS:  cpu time   26.3942: real time   13.2303
    ORTHCH:  cpu time    4.1178: real time    2.0641
       DOS:  cpu time    0.0050: real time    0.0025
    CHARGE:  cpu time    2.3314: real time    2.0147
    MIXING:  cpu time    0.0051: real time    0.0026
    --------------------------------------------
      LOOP:  cpu time   46.4309: real time   24.1610

 eigenvalue-minimisations  : 18546
 total energy-change (2. order) : 0.8111992E+01  (-0.9635445E+00)
 number of electron     715.0001014 magnetization      43.0795283
 augmentation part      450.7661217 magnetization      24.6883421

 DIPCOR: dipole corrections for dipol
 direction  3 min pos     1,
 dipolmoment           0.000000      0.000000      0.181923 electrons x Angstroem
 Tr[quadrupol]    -12629.923916

 energy correction for charged system         0.000000 eV
 dipol+quadrupol energy correction           -0.000980 eV
 added-field ion interaction         -0.582651 eV  (added to PSCEN)


 Broyden mixing:
  rms(total) = 0.11404E+01    rms(broyden)= 0.11403E+01
  rms(prec ) = 0.11481E+01
  weight for this iteration     100.00

 eigenvalues of (default mixing * dielectric matrix)
  average eigenvalue GAMMA=   1.0130
  2.4956  1.0955  0.6441  0.5864  0.2433

 Free energy of the ion-electron system (eV)
  ---------------------------------------------------
  alpha Z        PSCENC =      1005.74099017
  Ewald energy   TEWEN  =    586860.44864215
  -Hartree energ DENC   =   -670900.84235052
  -exchange      EXHF   =         0.00000000
  -V(xc)+E(xc)   XCENC  =      2957.48542251
  PAW double counting   =     84937.59397012   -91842.57039221
  entropy T*S    EENTRO =         0.00097511
  eigenvalues    EBANDS =     -2890.27854543
  atomic energy  EATOM  =     89718.02717123
  Solvation  Ediel_sol  =         0.00000000
  ---------------------------------------------------
  free energy    TOTEN  =      -154.39411686 eV

  energy without entropy =     -154.39509197  energy(sigma->0) =     -154.39444190


--------------------------------------------------------------------------------------------------------




--------------------------------------- Iteration      1(  11)  ---------------------------------------


    POTLOK:  cpu time    0.3723: real time    0.2516
    SETDIJ:  cpu time    0.0214: real time    0.0130
    EDDIAG:  cpu time   13.6385: real time    6.8364
  RMM-DIIS:  cpu time   26.2084: real time   13.1397
    ORTHCH:  cpu time    4.1127: real time    2.0615
       DOS:  cpu time    0.0072: real time    0.0036
    CHARGE:  cpu time    2.3401: real time    2.0290
    MIXING:  cpu time    0.0051: real time    0.0025
    --------------------------------------------
      LOOP:  cpu time   46.7057: real time   24.3373

 eigenvalue-minimisations  : 18531
 total energy-change (2. order) : 0.4790403E+01  (-0.5601201E+00)
 number of electron     715.0001016 magnetization      37.1366619
 augmentation part      450.9036763 magnetization      19.4524444

 DIPCOR: dipole corrections for dipol
 direction  3 min pos     1,
 dipolmoment           0.000000      0.000000      0.248658 electrons x Angstroem
 Tr[quadrupol]    -12633.240932

 energy correction for charged system         0.000000 eV
 dipol+quadrupol energy correction           -0.001831 eV
 added-field ion interaction         -0.796387 eV  (added to PSCEN)


 Broyden mixing:
  rms(total) = 0.94585E+00    rms(broyden)= 0.94571E+00
  rms(prec ) = 0.96115E+00
  weight for this iteration     100.00

 eigenvalues of (default mixing * dielectric matrix)
  average eigenvalue GAMMA=   1.1530
  3.6305  1.1511  0.8188  0.2456  0.6084  0.4634

 Free energy of the ion-electron system (eV)
  ---------------------------------------------------
  alpha Z        PSCENC =      1005.52640277
  Ewald energy   TEWEN  =    586860.44864215
  -Hartree energ DENC   =   -671058.53486351
  -exchange      EXHF   =         0.00000000
  -V(xc)+E(xc)   XCENC  =      2959.10006844
  PAW double counting   =     85854.75254630   -92804.20727959
  entropy T*S    EENTRO =         0.00195188
  eigenvalues    EBANDS =     -2684.71835348
  atomic energy  EATOM  =     89718.02717123
  Solvation  Ediel_sol  =         0.00000000
  ---------------------------------------------------
  free energy    TOTEN  =      -149.60371380 eV

  energy without entropy =     -149.60566568  energy(sigma->0) =     -149.60436443


--------------------------------------------------------------------------------------------------------




--------------------------------------- Iteration      1(  12)  ---------------------------------------


    POTLOK:  cpu time    0.3988: real time    0.2423
    SETDIJ:  cpu time    0.0217: real time    0.0131
    EDDIAG:  cpu time   13.5088: real time    6.7717
  RMM-DIIS:  cpu time   26.1768: real time   13.1275
    ORTHCH:  cpu time    4.1391: real time    2.0748
       DOS:  cpu time    0.0057: real time    0.0028
    CHARGE:  cpu time    4.8413: real time    3.2047
    MIXING:  cpu time    0.1671: real time    0.0967
    --------------------------------------------
      LOOP:  cpu time   49.2593: real time   25.5337

 eigenvalue-minimisations  : 18515
 total energy-change (2. order) :-0.3099084E+01  (-0.2056806E+00)
 number of electron     715.0001014 magnetization      31.5064952
 augmentation part      450.7599705 magnetization      15.3671875

 DIPCOR: dipole corrections for dipol
 direction  3 min pos     1,
 dipolmoment           0.000000      0.000000      0.324449 electrons x Angstroem
 Tr[quadrupol]    -12635.660278

 energy correction for charged system         0.000000 eV
 dipol+quadrupol energy correction           -0.003118 eV
 added-field ion interaction         -1.039127 eV  (added to PSCEN)


 Broyden mixing:
  rms(total) = 0.70376E+00    rms(broyden)= 0.70371E+00
  rms(prec ) = 0.72239E+00
  weight for this iteration     100.00

 eigenvalues of (default mixing * dielectric matrix)
  average eigenvalue GAMMA=   1.2229
  4.4446  1.3023  0.7869  0.7869  0.5743  0.2450  0.4206

 Free energy of the ion-electron system (eV)
  ---------------------------------------------------
  alpha Z        PSCENC =      1005.28237691
  Ewald energy   TEWEN  =    586860.44864215
  -Hartree energ DENC   =   -671185.95524522
  -exchange      EXHF   =         0.00000000
  -V(xc)+E(xc)   XCENC  =      2956.74496606
  PAW double counting   =     86050.74870436   -93008.81087186
  entropy T*S    EENTRO =         0.01361577
  eigenvalues    EBANDS =     -2549.20215686
  atomic energy  EATOM  =     89718.02717123
  Solvation  Ediel_sol  =         0.00000000
  ---------------------------------------------------
  free energy    TOTEN  =      -152.70279746 eV

  energy without entropy =     -152.71641323  energy(sigma->0) =     -152.70733605


--------------------------------------------------------------------------------------------------------




--------------------------------------- Iteration      1(  13)  ---------------------------------------


    POTLOK:  cpu time    0.2265: real time    0.2249
    SETDIJ:  cpu time    0.0221: real time    0.0133
    EDDIAG:  cpu time   13.3481: real time    6.6925
  RMM-DIIS:  cpu time   26.2514: real time   13.1589
    ORTHCH:  cpu time    4.0989: real time    2.0545
       DOS:  cpu time    0.0051: real time    0.0026
    CHARGE:  cpu time    2.3275: real time    2.0083
    MIXING:  cpu time    0.0055: real time    0.0027
    --------------------------------------------
      LOOP:  cpu time   46.2851: real time   24.1577

 eigenvalue-minimisations  : 18500
 total energy-change (2. order) :-0.9673357E+01  (-0.2538813E+00)
 number of electron     715.0001015 magnetization      22.5868984
 augmentation part      450.7532103 magnetization       8.5616943

 DIPCOR: dipole corrections for dipol
 direction  3 min pos     1,
 dipolmoment           0.000000      0.000000      0.145697 electrons x Angstroem
 Tr[quadrupol]    -12636.089270

 energy correction for charged system         0.000000 eV
 dipol+quadrupol energy correction           -0.000629 eV
 added-field ion interaction         -0.466631 eV  (added to PSCEN)


 Broyden mixing:
  rms(total) = 0.60687E+00    rms(broyden)= 0.60662E+00
  rms(prec ) = 0.62910E+00
  weight for this iteration     100.00

 eigenvalues of (default mixing * dielectric matrix)
  average eigenvalue GAMMA=   1.4474
  5.3684  2.1104  1.1230  1.1230  0.2448  0.6362  0.5709  0.4025

 Free energy of the ion-electron system (eV)
  ---------------------------------------------------
  alpha Z        PSCENC =      1005.85736158
  Ewald energy   TEWEN  =    586860.44864215
  -Hartree energ DENC   =   -671204.83979936
  -exchange      EXHF   =         0.00000000
  -V(xc)+E(xc)   XCENC  =      2950.27439720
  PAW double counting   =     85878.39445705   -92826.65756699
  entropy T*S    EENTRO =         0.01982220
  eigenvalues    EBANDS =     -2543.90063912
  atomic energy  EATOM  =     89718.02717123
  Solvation  Ediel_sol  =         0.00000000
  ---------------------------------------------------
  free energy    TOTEN  =      -162.37615405 eV

  energy without entropy =     -162.39597625  energy(sigma->0) =     -162.38276145


--------------------------------------------------------------------------------------------------------




--------------------------------------- Iteration      1(  14)  ---------------------------------------


    POTLOK:  cpu time    0.3657: real time    0.2562
    SETDIJ:  cpu time    0.0219: real time    0.0132
    EDDIAG:  cpu time   13.2673: real time    6.6521
  RMM-DIIS:  cpu time   26.1238: real time   13.0952
    ORTHCH:  cpu time    4.1133: real time    2.0618
       DOS:  cpu time    0.0067: real time    0.0033
    CHARGE:  cpu time    2.2372: real time    1.9239
    MIXING:  cpu time    0.0065: real time    0.0032
    --------------------------------------------
      LOOP:  cpu time   46.1424: real time   24.0090

 eigenvalue-minimisations  : 18496
 total energy-change (2. order) :-0.3683825E+02  (-0.3097600E+01)
 number of electron     715.0001017 magnetization      19.0407031
 augmentation part      450.6161484 magnetization      10.2586771

 DIPCOR: dipole corrections for dipol
 direction  3 min pos     1,
 dipolmoment           0.000000      0.000000      0.334090 electrons x Angstroem
 Tr[quadrupol]    -12633.365827

 energy correction for charged system         0.000000 eV
 dipol+quadrupol energy correction           -0.003306 eV
 added-field ion interaction         -1.070004 eV  (added to PSCEN)


 Broyden mixing:
  rms(total) = 0.11418E+01    rms(broyden)= 0.11392E+01
  rms(prec ) = 0.12251E+01
  weight for this iteration     100.00

 eigenvalues of (default mixing * dielectric matrix)
  average eigenvalue GAMMA=   1.5486
  6.8302  2.7586  1.1613  0.7796  0.7796  0.6074  0.2447  0.4147  0.3612

 Free energy of the ion-electron system (eV)
  ---------------------------------------------------
  alpha Z        PSCENC =      1005.25131117
  Ewald energy   TEWEN  =    586860.44864215
  -Hartree energ DENC   =   -671085.90937421
  -exchange      EXHF   =         0.00000000
  -V(xc)+E(xc)   XCENC  =      2928.50623657
  PAW double counting   =     84856.36624535   -91754.19969588
  entropy T*S    EENTRO =        -0.00385979
  eigenvalues    EBANDS =     -2727.70108001
  atomic energy  EATOM  =     89718.02717123
  Solvation  Ediel_sol  =         0.00000000
  ---------------------------------------------------
  free energy    TOTEN  =      -199.21440341 eV

  energy without entropy =     -199.21054362  energy(sigma->0) =     -199.21311681


--------------------------------------------------------------------------------------------------------




--------------------------------------- Iteration      1(  15)  ---------------------------------------


    POTLOK:  cpu time    0.4077: real time    0.2360
    SETDIJ:  cpu time    0.0219: real time    0.0132
    EDDIAG:  cpu time   13.2155: real time    6.6240
  RMM-DIIS:  cpu time   26.1959: real time   13.1312
    ORTHCH:  cpu time    4.1167: real time    2.0635
       DOS:  cpu time    0.0049: real time    0.0025
    CHARGE:  cpu time    2.3622: real time    2.0472
    MIXING:  cpu time    0.0064: real time    0.0032
    --------------------------------------------
      LOOP:  cpu time   46.3313: real time   24.1208

 eigenvalue-minimisations  : 18506
 total energy-change (2. order) :-0.6070208E+01  (-0.7184208E+00)
 number of electron     715.0001015 magnetization      15.4123035
 augmentation part      449.8175052 magnetization       8.6031217

 DIPCOR: dipole corrections for dipol
 direction  3 min pos     1,
 dipolmoment           0.000000      0.000000      0.296584 electrons x Angstroem
 Tr[quadrupol]    -12633.648013

 energy correction for charged system         0.000000 eV
 dipol+quadrupol energy correction           -0.002605 eV
 added-field ion interaction         -0.949881 eV  (added to PSCEN)


 Broyden mixing:
  rms(total) = 0.48741E+00    rms(broyden)= 0.48624E+00
  rms(prec ) = 0.51962E+00
  weight for this iteration     100.00

 eigenvalues of (default mixing * dielectric matrix)
  average eigenvalue GAMMA=   1.5817
  7.8284  3.0305  1.0082  1.0082  0.7467  0.2448  0.5414  0.4990  0.4990  0.4106

 Free energy of the ion-electron system (eV)
  ---------------------------------------------------
  alpha Z        PSCENC =      1005.37213519
  Ewald energy   TEWEN  =    586860.44864215
  -Hartree energ DENC   =   -671092.28634965
  -exchange      EXHF   =         0.00000000
  -V(xc)+E(xc)   XCENC  =      2924.18419377
  PAW double counting   =     84589.16657079   -91474.74704635
  entropy T*S    EENTRO =         0.00238064
  eigenvalues    EBANDS =     -2735.45230964
  atomic energy  EATOM  =     89718.02717123
  Solvation  Ediel_sol  =         0.00000000
  ---------------------------------------------------
  free energy    TOTEN  =      -205.28461186 eV

  energy without entropy =     -205.28699250  energy(sigma->0) =     -205.28540541


--------------------------------------------------------------------------------------------------------




--------------------------------------- Iteration      1(  16)  ---------------------------------------


    POTLOK:  cpu time    0.4203: real time    0.2417
    SETDIJ:  cpu time    0.0262: real time    0.0175
    EDDIAG:  cpu time   13.1764: real time    6.6058
  RMM-DIIS:  cpu time   25.6523: real time   13.1093
    ORTHCH:  cpu time    4.0887: real time    2.0528
       DOS:  cpu time    0.0063: real time    0.0032
    CHARGE:  cpu time    2.3143: real time    1.9978
    MIXING:  cpu time    0.0091: real time    0.0045
    --------------------------------------------
      LOOP:  cpu time   45.6936: real time   24.0325

 eigenvalue-minimisations  : 18474
 total energy-change (2. order) :-0.9207820E+01  (-0.7885097E+00)
 number of electron     715.0001015 magnetization       9.6629739
 augmentation part      449.9584321 magnetization       5.0912829

 DIPCOR: dipole corrections for dipol
 direction  3 min pos     1,
 dipolmoment           0.000000      0.000000      0.273397 electrons x Angstroem
 Tr[quadrupol]    -12633.119307

 energy correction for charged system         0.000000 eV
[...]
   0.559E+01 -.795E+01 0.137E+04   -.551E+01 0.803E+01 -.137E+04   -.900E-01 -.730E-01 -.449E+00   0.736E-02 -.570E-02 -.296E-01
   -.533E+01 0.786E+01 0.137E+04   0.525E+01 -.794E+01 -.137E+04   0.877E-01 0.767E-01 -.446E+00   -.441E-02 0.421E-03 -.301E-01
   -.120E+02 0.121E+02 0.141E+04   0.120E+02 -.122E+02 -.141E+04   -.265E-01 0.371E-01 -.318E+00   -.917E-02 -.144E-02 -.335E-01
   -.120E+02 -.121E+02 0.141E+04   0.121E+02 0.121E+02 -.141E+04   -.266E-01 -.370E-01 -.317E+00   -.938E-02 0.149E-02 -.333E-01
   -.536E+01 -.792E+01 0.137E+04   0.528E+01 0.800E+01 -.137E+04   0.885E-01 -.758E-01 -.446E+00   -.492E-02 -.864E-03 -.299E-01
   -.395E+01 0.415E+01 0.136E+04   0.396E+01 -.416E+01 -.136E+04   -.172E-01 0.712E-02 -.393E+00   0.600E-02 0.151E-02 -.309E-01
   -.764E+01 0.544E+01 0.137E+04   0.772E+01 -.536E+01 -.137E+04   -.922E-01 -.839E-01 -.447E+00   0.146E-01 0.103E-02 -.301E-01
   -.764E+01 -.541E+01 0.137E+04   0.772E+01 0.533E+01 -.137E+04   -.911E-01 0.838E-01 -.447E+00   0.139E-01 -.960E-03 -.303E-01
   -.394E+01 -.418E+01 0.136E+04   0.395E+01 0.418E+01 -.136E+04   -.170E-01 -.728E-02 -.393E+00   0.595E-02 -.118E-02 -.311E-01
   0.228E+02 0.229E+02 -.125E+04   -.224E+02 -.225E+02 0.125E+04   -.322E+00 -.319E+00 0.717E-01   -.811E-02 -.970E-02 -.508E-01
   0.338E+02 0.104E+00 -.122E+04   -.337E+02 -.105E+00 0.122E+04   -.745E-01 -.170E-03 0.430E+00   -.486E-02 0.857E-03 -.874E-01
   0.228E+02 -.230E+02 -.125E+04   -.225E+02 0.226E+02 0.125E+04   -.322E+00 0.320E+00 0.690E-01   -.927E-02 0.987E-02 -.494E-01
   0.131E+02 -.214E-01 -.125E+04   -.133E+02 0.216E-01 0.125E+04   0.141E+00 -.800E-03 0.501E+00   -.228E-03 0.502E-03 -.277E-01
   0.703E+00 0.340E+02 -.122E+04   -.704E+00 -.340E+02 0.122E+04   -.617E-03 -.717E-01 0.395E+00   0.183E-02 -.647E-02 -.475E-01
   0.720E+00 0.814E-01 -.107E+04   -.729E+00 -.828E-01 0.107E+04   0.131E-02 0.163E-02 0.113E+01   0.566E-02 -.107E-03 -.529E-01
   0.727E+00 -.341E+02 -.122E+04   -.728E+00 0.340E+02 0.122E+04   -.420E-03 0.714E-01 0.396E+00   0.129E-02 0.576E-02 -.469E-01
   0.451E+00 -.440E-01 -.123E+04   -.453E+00 0.440E-01 0.123E+04   -.765E-02 0.219E-03 0.274E+00   0.831E-02 -.237E-03 -.340E-01
   -.233E+02 0.232E+02 -.125E+04   0.230E+02 -.229E+02 0.125E+04   0.331E+00 -.326E+00 0.459E-01   0.641E-02 -.115E-01 -.367E-01
   -.343E+02 0.114E+00 -.122E+04   0.342E+02 -.115E+00 0.122E+04   0.757E-01 0.586E-04 0.389E+00   0.178E-02 0.280E-03 -.383E-01
   -.234E+02 -.233E+02 -.125E+04   0.231E+02 0.230E+02 0.125E+04   0.333E+00 0.326E+00 0.443E-01   0.457E-02 0.108E-01 -.357E-01
   -.134E+02 -.138E-01 -.124E+04   0.135E+02 0.140E-01 0.124E+04   -.143E+00 -.190E-03 0.495E+00   -.108E-03 -.111E-03 -.205E-01
   -.192E+00 0.133E+02 -.124E+04   0.192E+00 -.134E+02 0.124E+04   -.118E-01 0.142E+00 0.518E+00   0.888E-02 -.406E-03 -.393E-01
   -.404E+00 0.693E-01 -.123E+04   0.403E+00 -.693E-01 0.123E+04   -.315E-02 -.750E-03 0.300E+00   0.245E-02 0.877E-03 -.533E-01
   -.156E+00 -.134E+02 -.124E+04   0.155E+00 0.135E+02 0.124E+04   -.111E-01 -.143E+00 0.518E+00   0.805E-02 0.101E-02 -.388E-01
   -.176E+00 0.228E-02 -.126E+04   0.178E+00 -.252E-02 0.126E+04   -.187E-02 -.372E-03 0.132E+00   0.187E-03 0.663E-03 -.304E-01
   0.184E+02 0.185E+02 -.382E+04   -.185E+02 -.185E+02 0.381E+04   0.595E-01 0.610E-01 0.355E+01   0.179E-03 -.640E-03 -.269E-01
   0.461E+02 0.216E+02 -.380E+04   -.461E+02 -.217E+02 0.379E+04   0.197E-01 0.162E+00 0.344E+01   -.186E-01 -.126E-01 -.205E-01
   0.462E+02 -.215E+02 -.380E+04   -.462E+02 0.216E+02 0.379E+04   0.206E-01 -.164E+00 0.344E+01   -.190E-01 0.142E-01 -.209E-01
   0.185E+02 -.185E+02 -.382E+04   -.185E+02 0.186E+02 0.381E+04   0.606E-01 -.626E-01 0.355E+01   -.584E-03 0.160E-02 -.268E-01
   0.221E+02 0.466E+02 -.379E+04   -.223E+02 -.466E+02 0.379E+04   0.147E+00 0.139E-01 0.344E+01   -.848E-04 -.147E-01 -.262E-01
   0.131E+03 0.129E+03 -.370E+04   -.132E+03 -.131E+03 0.369E+04   0.174E+01 0.173E+01 0.365E+01   -.116E-01 -.271E-01 -.315E-01
   0.131E+03 -.129E+03 -.369E+04   -.133E+03 0.131E+03 0.369E+04   0.175E+01 -.173E+01 0.364E+01   -.132E-01 0.274E-01 -.310E-01
   0.221E+02 -.467E+02 -.379E+04   -.223E+02 0.468E+02 0.379E+04   0.149E+00 -.132E-01 0.344E+01   -.109E-02 0.139E-01 -.257E-01
   -.215E+02 0.471E+02 -.379E+04   0.217E+02 -.471E+02 0.379E+04   -.158E+00 0.189E-01 0.344E+01   0.935E-02 -.155E-01 -.274E-01
   -.129E+03 0.131E+03 -.369E+04   0.131E+03 -.133E+03 0.368E+04   -.170E+01 0.174E+01 0.362E+01   0.133E-01 -.148E-01 -.403E-01
   -.129E+03 -.131E+03 -.369E+04   0.131E+03 0.133E+03 0.368E+04   -.170E+01 -.173E+01 0.362E+01   0.122E-01 0.138E-01 -.394E-01
   -.216E+02 -.472E+02 -.379E+04   0.217E+02 0.472E+02 0.379E+04   -.158E+00 -.186E-01 0.344E+01   0.839E-02 0.142E-01 -.274E-01
   -.189E+02 0.187E+02 -.382E+04   0.190E+02 -.187E+02 0.381E+04   -.653E-01 0.735E-01 0.354E+01   0.257E-03 -.846E-02 -.245E-01
   -.475E+02 0.220E+02 -.379E+04   0.475E+02 -.222E+02 0.379E+04   -.148E-01 0.151E+00 0.343E+01   0.986E-02 -.327E-02 -.188E-01
   -.476E+02 -.220E+02 -.379E+04   0.476E+02 0.221E+02 0.379E+04   -.141E-01 -.152E+00 0.343E+01   0.868E-02 0.395E-02 -.185E-01
   -.190E+02 -.187E+02 -.382E+04   0.190E+02 0.188E+02 0.381E+04   -.645E-01 -.743E-01 0.354E+01   -.478E-03 0.883E-02 -.246E-01
   0.346E+01 0.391E+00 -.194E+04   -.388E+01 -.438E+00 0.191E+04   0.413E+00 0.457E-01 0.239E+02   0.197E-02 0.740E-03 -.138E-01
   -.278E+01 -.306E+00 -.270E+04   0.336E+01 0.371E+00 0.276E+04   -.613E+00 -.687E-01 -.533E+02   0.154E-01 0.162E-02 0.164E-01
 -----------------------------------------------------------------------------------------------
   0.703E-01 0.678E-02 0.306E+02   0.627E-12 -.211E-12 -.132E-10   -.116E+00 -.136E-01 -.289E+02   0.420E-01 0.686E-02 -.176E+01
 
 
 POSITION                                       TOTAL-FORCE (eV/Angst)
 -----------------------------------------------------------------------------------
      1.26140      1.26140     12.31431        -0.013445     -0.013436     -0.029896
      1.26140      3.78419     12.31431        -0.002468      0.000060     -0.010109
      1.26140      6.30699     12.31431        -0.013356      0.013367     -0.030096
      1.26140      8.82979     12.31431        -0.004107      0.000360      0.034401
      3.78419      1.26140     12.31431        -0.000649     -0.003253     -0.010044
      3.78419      3.78419     12.31431         0.000766      0.000386      0.008867
      3.78419      6.30699     12.31431        -0.000212      0.003564     -0.010181
      3.78419      8.82979     12.31431        -0.001214      0.000669      0.011045
      6.30699      1.26140     12.31431         0.014354     -0.013948     -0.030541
      6.30699      3.78419     12.31431         0.005480      0.000185     -0.009693
      6.30699      6.30699     12.31431         0.014593      0.013822     -0.030480
      6.30699      8.82979     12.31431         0.002976      0.000396      0.033447
      8.82979      1.26140     12.31431         0.002338     -0.003417      0.033026
      8.82979      3.78419     12.31431         0.003552     -0.000117      0.010842
      8.82979      6.30699     12.31431         0.002648      0.002783      0.032922
      8.82979      8.82979     12.31431         0.001255      0.000165      0.028612
      0.00063      0.00085     14.09782         0.002434     -0.002829     -0.001622
      0.00188      2.52311     14.09780        -0.000652     -0.003034     -0.006305
      0.00199      5.04500     14.09772        -0.000757      0.003491     -0.006414
      0.00079      7.56736     14.09786         0.002459      0.002976     -0.001448
      2.52263      0.00108     14.09747        -0.001553     -0.002394     -0.000545
      2.51574      2.51565     14.08252         0.002498     -0.002325     -0.005013
      2.51578      5.05311     14.08247         0.002362      0.002351     -0.004757
      2.52283      7.56774     14.09733        -0.002085      0.002518     -0.000390
      5.04473      0.00087     14.09708         0.004010     -0.001272     -0.000246
      5.05365      2.51529     14.08186         0.003401     -0.000255     -0.001194
      5.05374      5.05333     14.08179         0.003039      0.000122     -0.001201
      5.04492      7.56790     14.09710         0.003994      0.001200     -0.000242
      7.56774      0.00076     14.09737        -0.002426     -0.001306      0.000963
      7.56905      2.52294     14.09699        -0.004610     -0.000989     -0.000731
      7.56918      5.04532     14.09701        -0.004403      0.001093     -0.000625
      7.56796      7.56760     14.09726        -0.002743      0.001403      0.001189
      1.27260      1.27237     15.92913         0.003018      0.000798      0.004309
      1.28325      3.78419     15.92045         0.000877      0.000010      0.011209
      1.27303      6.29609     15.92894         0.002768     -0.000105      0.003981
      1.26184      8.82991     15.91376         0.001247     -0.000036     -0.004375
      3.78439      1.28095     15.91956        -0.000253     -0.000391      0.002335
      3.78626      3.78463     15.81878        -0.002088      0.000066      0.002443
      3.78494      6.28853     15.91921        -0.000844      0.000036      0.002469
      3.78299      8.83039     15.90896        -0.000768     -0.000144     -0.001331
      6.29719      1.27157     15.92759         0.002020      0.002395     -0.000878
      6.29085      3.78435     15.91811         0.002760     -0.000120     -0.000627
      6.29776      6.29714     15.92738         0.001847     -0.002449     -0.000944
      6.30476      8.83003     15.91278         0.002255     -0.000106     -0.005952
      8.83109      1.26249     15.91279        -0.002861     -0.000349      0.002493
      8.83316      3.78390     15.90827        -0.001545      0.000162      0.008397
      8.83161      6.30529     15.91271        -0.003473      0.000912      0.002355
      8.82911      8.82955     15.91738         0.000668      0.000094     -0.001502
     10.09118      0.00082     17.69108         0.000587     -0.000508      0.000146
      0.00161      2.52478     17.69063         0.003931      0.005334     -0.005046
      0.00213      5.04280     17.69057         0.003178     -0.004738     -0.004659
      0.00052      7.56678     17.69084         0.000218      0.001202      0.000193
      2.52422     10.09035     17.68986         0.001852      0.001339     -0.001198
      2.52285      2.51929     17.74854        -0.006896      0.000299     -0.006169
      2.52307      5.05086     17.74793        -0.006827     -0.000570     -0.005922
      2.52478      7.57053     17.68975         0.001577     -0.001317     -0.001120
      5.04191     10.08982     17.68847        -0.000592      0.002686      0.001461
      5.05554      2.51758     17.74336         0.002077     -0.003104     -0.000918
      5.05623      5.05240     17.74292         0.001219      0.002338     -0.000544
      5.04249      7.57107     17.68816        -0.001092     -0.003167      0.001709
      7.56597      0.00101     17.69005         0.002977      0.002068      0.000711
      7.57378      2.52527     17.68813        -0.000940      0.000169     -0.001918
      7.57433      5.04277     17.68789        -0.001369      0.000061     -0.001856
      7.56645      7.56695     17.69015         0.002611     -0.001765      0.000660
      3.80354      3.78664     18.85589        -0.008844     -0.001374     -0.011296
      3.81770      3.78823     20.09735        -0.016773     -0.002062      0.007846
 -----------------------------------------------------------------------------------
    total drift:                               -0.003934      0.000012     -0.012398


--------------------------------------------------------------------------------------------------------



  FREE ENERGIE OF THE ION-ELECTRON SYSTEM (eV)
  ---------------------------------------------------
  free  energy   TOTEN  =      -255.36711844 eV

  energy  without entropy=     -255.39876520  energy(sigma->0) =     -255.37766736
 
 d Force =-0.1235385E-04[-0.346E-04, 0.991E-05]  d Energy =-0.3454708E-05-0.890E-05
 d Force =-0.2336980E+01[-0.234E+01,-0.234E+01]  d Ewald  =-0.2336980E+01 0.393E-07


--------------------------------------------------------------------------------------------------------


    POTLOK:  cpu time    0.2085: real time    0.1995


--------------------------------------------------------------------------------------------------------




--------------------------------------------------------------------------------------------------------


  
 reached required accuracy - stopping structural energy minimisation
 writing wavefunctions
     LOOP+:  cpu time  337.6648: real time  174.3401
    4ORBIT:  cpu time    0.0000: real time    0.0000
 


 total charge     
 
# of ion       s       p       d       tot
------------------------------------------
    1        0.452   0.277   9.208   9.938
    2        0.454   0.278   9.207   9.939
    3        0.452   0.277   9.208   9.938
    4        0.451   0.277   9.207   9.935
    5        0.454   0.278   9.207   9.939
    6        0.449   0.280   9.206   9.935
    7        0.454   0.278   9.207   9.939
    8        0.449   0.277   9.208   9.935
    9        0.452   0.277   9.208   9.938
   10        0.454   0.278   9.207   9.939
   11        0.452   0.277   9.208   9.938
   12        0.451   0.277   9.207   9.935
   13        0.451   0.277   9.207   9.935
   14        0.449   0.277   9.208   9.935
   15        0.451   0.277   9.207   9.935
   16        0.453   0.274   9.209   9.936
   17        0.453   0.397   9.177  10.027
   18        0.452   0.399   9.177  10.028
   19        0.452   0.399   9.177  10.028
   20        0.453   0.397   9.177  10.027
   21        0.452   0.399   9.177  10.028
   22        0.457   0.402   9.178  10.038
   23        0.458   0.402   9.178  10.038
   24        0.452   0.399   9.177  10.028
   25        0.452   0.399   9.177  10.028
   26        0.457   0.402   9.178  10.038
   27        0.457   0.402   9.178  10.038
   28        0.452   0.399   9.177  10.028
   29        0.453   0.397   9.177  10.027
   30        0.452   0.399   9.177  10.028
   31        0.452   0.399   9.177  10.028
   32        0.453   0.397   9.177  10.027
   33        0.452   0.402   9.174  10.028
   34        0.448   0.400   9.176  10.024
   35        0.453   0.402   9.174  10.028
   36        0.455   0.398   9.178  10.031
   37        0.448   0.400   9.176  10.025
   38        0.462   0.379   9.197  10.038
   39        0.448   0.400   9.176  10.025
   40        0.453   0.400   9.176  10.029
   41        0.453   0.402   9.173  10.028
   42        0.448   0.400   9.176  10.025
   43        0.453   0.402   9.173  10.028
   44        0.455   0.398   9.178  10.031
   45        0.455   0.398   9.178  10.031
   46        0.453   0.400   9.176  10.029
   47        0.455   0.398   9.178  10.031
   48        0.450   0.404   9.175  10.029
   49        0.450   0.277   9.209   9.936
   50        0.452   0.279   9.208   9.940
   51        0.452   0.279   9.208   9.940
   52        0.450   0.277   9.209   9.936
   53        0.452   0.279   9.208   9.940
   54        0.441   0.320   9.184   9.945
   55        0.441   0.321   9.183   9.945
   56        0.452   0.279   9.208   9.940
   57        0.453   0.280   9.208   9.941
   58        0.443   0.324   9.182   9.949
   59        0.443   0.324   9.182   9.950
   60        0.453   0.280   9.208   9.941
   61        0.450   0.277   9.209   9.936
   62        0.453   0.280   9.208   9.941
   63        0.453   0.280   9.208   9.941
   64        0.450   0.277   9.209   9.936
   65        1.282   2.359   0.000   3.641
   66        1.627   3.419   0.000   5.046
--------------------------------------------------
tot         31.830  27.616 588.231 647.676
 


 magnetization (x)
 
# of ion       s       p       d       tot
------------------------------------------
    1       -0.000  -0.000   0.000  -0.000
    2       -0.000  -0.000   0.000   0.000
    3       -0.000  -0.000   0.000  -0.000
    4       -0.000  -0.000   0.000   0.000
    5       -0.000  -0.000   0.000   0.000
    6       -0.000  -0.000   0.000   0.000
    7       -0.000  -0.000   0.000   0.000
    8       -0.000  -0.000   0.000  -0.000
    9       -0.000  -0.000   0.000  -0.000
   10       -0.000  -0.000   0.000   0.000
   11       -0.000  -0.000   0.000  -0.000
   12       -0.000  -0.000   0.000   0.000
   13       -0.000  -0.000   0.000   0.000
   14       -0.000  -0.000   0.000  -0.000
   15       -0.000  -0.000   0.000   0.000
   16       -0.000  -0.000   0.000  -0.000
   17       -0.000  -0.000  -0.000  -0.000
   18       -0.000  -0.000  -0.000  -0.000
   19       -0.000   0.000  -0.000  -0.000
   20       -0.000  -0.000   0.000  -0.000
   21       -0.000  -0.000   0.000   0.000
   22        0.000   0.000  -0.000  -0.000
   23       -0.000   0.000   0.000   0.000
   24       -0.000  -0.000   0.000   0.000
   25       -0.000  -0.000   0.000   0.000
   26       -0.000   0.000  -0.000  -0.000
   27       -0.000   0.000  -0.000  -0.000
   28       -0.000  -0.000   0.000   0.000
   29       -0.000  -0.000   0.000  -0.000
   30       -0.000   0.000   0.000   0.000
   31       -0.000  -0.000   0.000  -0.000
   32       -0.000  -0.000   0.000  -0.000
   33       -0.000   0.000  -0.000  -0.000
   34        0.000   0.000   0.000   0.000
   35        0.000   0.000  -0.000  -0.000
   36        0.000  -0.000   0.000   0.000
   37        0.000  -0.000   0.000   0.000
   38        0.000   0.000  -0.000   0.000
   39        0.000   0.000   0.000   0.000
   40        0.000  -0.000  -0.000  -0.000
   41       -0.000   0.000  -0.000  -0.000
   42        0.000   0.000   0.000   0.000
   43       -0.000   0.000  -0.000  -0.000
   44        0.000  -0.000  -0.000  -0.000
   45        0.000   0.000   0.000   0.000
   46        0.000  -0.000  -0.000  -0.000
   47        0.000  -0.000  -0.000  -0.000
   48       -0.000   0.000  -0.000  -0.000
   49        0.000   0.000  -0.000  -0.000
   50        0.000   0.000  -0.000  -0.000
   51        0.000   0.000  -0.000  -0.000
   52        0.000   0.000  -0.000  -0.000
   53        0.000   0.000  -0.000  -0.000
   54        0.000   0.000   0.000   0.000
   55        0.000   0.000   0.000   0.000
   56        0.000   0.000  -0.000  -0.000
   57        0.000   0.000  -0.000  -0.000
   58        0.000   0.000   0.000   0.000
   59        0.000   0.000   0.000   0.000
   60        0.000   0.000  -0.000   0.000
   61        0.000   0.000  -0.000  -0.000
   62        0.000   0.000  -0.000   0.000
   63        0.000   0.000  -0.000   0.000
   64        0.000   0.000  -0.000  -0.000
   65        0.000   0.000   0.000   0.000
   66        0.000   0.000   0.000   0.000
--------------------------------------------------
tot         -0.000   0.000   0.000   0.000
 

 total amount of memory used by VASP MPI-rank0   220008. kBytes
=======================================================================

   base      :      30000. kBytes
   nonlr-proj:      56615. kBytes
   fftplans  :       5709. kBytes
   grid      :      81838. kBytes
   one-center:       2052. kBytes
   wavefun   :      43794. kBytes
 
  
  
 General timing and accounting informations for this job:
 ========================================================
  
                  Total CPU time used (sec):     4135.694
                            User time (sec):     3957.722
                          System time (sec):      177.972
                         Elapsed time (sec):     2194.049
  
                   Maximum memory used (kb):      718568.
                   Average memory used (kb):           0.
  
                          Minor page faults:       784680
                          Major page faults:            0
                 Voluntary context switches:        18107
