 vasp.5.4.4.18Apr17-6-g9f103f2a35 (build May 01 2020 14:57:12) complex          
  
 executed on             LinuxIFC date 2021.09.15  15:38:52
 running on  192 total cores
 distrk:  each k-point on  192 cores,    1 groups
 distr:  one band on NCORES_PER_BAND=   1 cores,  192 groups


--------------------------------------------------------------------------------------------------------


 INCAR:
 POTCAR:    PAW_PBE Pd 04Jan2005                  
 POTCAR:    PAW_PBE N 08Apr2002                   
 POTCAR:    PAW_PBE O 08Apr2002                   

 ----------------------------------------------------------------------------- 
|                                                                             |
|           W    W    AA    RRRRR   N    N  II  N    N   GGGG   !!!           |
|           W    W   A  A   R    R  NN   N  II  NN   N  G    G  !!!           |
|           W    W  A    A  R    R  N N  N  II  N N  N  G       !!!           |
|           W WW W  AAAAAA  RRRRR   N  N N  II  N  N N  G  GGG   !            |
|           WW  WW  A    A  R   R   N   NN  II  N   NN  G    G                |
|           W    W  A    A  R    R  N    N  II  N    N   GGGG   !!!           |
|                                                                             |
|      For optimal performance we recommend to set                            |
|        NCORE= 4 - approx SQRT( number of cores)                             |
|      NCORE specifies how many cores store one orbital (NPAR=cpu/NCORE).     |
|      This setting can  greatly improve the performance of VASP for DFT.     |
|      The default,   NCORE=1            might be grossly inefficient         |
|      on modern multi-core architectures or massively parallel machines.     |
|      Do your own testing !!!!                                               |
|      Unfortunately you need to use the default for GW and RPA calculations. |
|      (for HF NCORE is supported but not extensively tested yet)             |
|                                                                             |
 ----------------------------------------------------------------------------- 

 POTCAR:    PAW_PBE Pd 04Jan2005                  
   VRHFIN =Pd : s1 d9                                                           
   LEXCH  = PE                                                                  
   EATOM  =   809.7530 eV,   59.5152 Ry                                         
                                                                                
   TITEL  = PAW_PBE Pd 04Jan2005                                                
   LULTRA =        F    use ultrasoft PP ?                                      
   IUNSCR =        1    unscreen: 0-lin 1-nonlin 2-no                           
   RPACOR =    2.000    partial core radius                                     
   POMASS =  106.420; ZVAL   =   10.000    mass and valenz                      
   RCORE  =    2.600    outmost cutoff radius                                   
   RWIGS  =    2.710; RWIGS  =    1.434    wigner-seitz radius (au A)           
   ENMAX  =  250.925; ENMIN  =  188.194 eV                                      
   ICORE  =        3    local potential                                         
   LCOR   =        T    correct aug charges                                     
   LPAW   =        T    paw PP                                                  
   EAUG   =  416.230                                                            
   DEXC   =    0.000                                                            
   RMAX   =    2.653    core radius for proj-oper                               
   RAUG   =    1.300    factor for augmentation sphere                          
   RDEP   =    2.734    radius for radial grids                                 
   RDEPT  =    2.103    core radius for aug-charge                              
                                                                                
   Atomic configuration                                                         
   12 entries                                                                   
     n  l   j            E        occ.                                          
     1  0  0.50    -24164.6631   2.0000                                         
     2  0  0.50     -3530.9218   2.0000                                         
     2  1  1.50     -3165.6822   6.0000                                         
     3  0  0.50      -639.4577   2.0000                                         
     3  1  1.50      -519.4532   6.0000                                         
     3  2  2.50      -328.9757  10.0000                                         
     4  0  0.50       -88.7014   2.0000                                         
     4  1  1.50       -54.4540   6.0000                                         
     4  2  2.50        -6.6878   9.0000                                         
     5  0  0.50        -4.3543   1.0000                                         
     5  1  0.50        -1.3606   0.0000                                         
     4  3  2.50        -1.3606   0.0000                                         
   Description                                                                  
     l       E           TYP  RCUT    TYP  RCUT                                 
     2     -6.6878251     23  2.400                                             
     2     -8.0484077     23  2.400                                             
     0     -4.3542939     23  2.400                                             
     0      4.3406793     23  2.400                                             
     1     -4.0817478     23  2.600                                             
     1     15.8380318     23  2.600                                             
     3     -4.0817478     23  2.400                                             
  local pseudopotential read in
  partial core-charges read in
  partial kinetic energy density read in
  atomic valenz-charges read in
  non local Contribution for L=           2  read in
    real space projection operators read in
  non local Contribution for L=           2  read in
    real space projection operators read in
  non local Contribution for L=           0  read in
    real space projection operators read in
  non local Contribution for L=           0  read in
    real space projection operators read in
  non local Contribution for L=           1  read in
    real space projection operators read in
  non local Contribution for L=           1  read in
    real space projection operators read in
    PAW grid and wavefunctions read in
 
   number of l-projection  operators is LMAX  =           6
   number of lm-projection operators is LMMAX =          18
 
 POTCAR:    PAW_PBE N 08Apr2002                   
   VRHFIN =N: s2p3                                                              
   LEXCH  = PE                                                                  
   EATOM  =   264.5486 eV,   19.4438 Ry                                         
                                                                                
   TITEL  = PAW_PBE N 08Apr2002                                                 
   LULTRA =        F    use ultrasoft PP ?                                      
   IUNSCR =        1    unscreen: 0-lin 1-nonlin 2-no                           
   RPACOR =    1.200    partial core radius                                     
   POMASS =   14.001; ZVAL   =    5.000    mass and valenz                      
   RCORE  =    1.500    outmost cutoff radius                                   
   RWIGS  =    1.400; RWIGS  =    0.741    wigner-seitz radius (au A)           
   ENMAX  =  400.000; ENMIN  =  300.000 eV                                      
   ICORE  =        2    local potential                                         
   LCOR   =        T    correct aug charges                                     
   LPAW   =        T    paw PP                                                  
   EAUG   =  627.112                                                            
   DEXC   =    0.000                                                            
   RMAX   =    1.529    core radius for proj-oper                               
   RAUG   =    1.300    factor for augmentation sphere                          
   RDEP   =    1.514    radius for radial grids                                 
   RDEPT  =    1.338    core radius for aug-charge                              
                                                                                
   Atomic configuration                                                         
    4 entries                                                                   
     n  l   j            E        occ.                                          
     1  0  0.50      -384.7179   2.0000                                         
     2  0  0.50       -18.5828   2.0000                                         
     2  1  0.50        -7.0898   3.0000                                         
     3  2  1.50        -6.8029   0.0000                                         
   Description                                                                  
     l       E           TYP  RCUT    TYP  RCUT                                 
     0    -18.5828119     23  1.200                                             
     0    -13.5018863     23  1.200                                             
     1     -7.0897853     23  1.500                                             
     1      9.5240782     23  1.500                                             
     2     -6.8029130      7  1.500                                             
  local pseudopotential read in
  partial core-charges read in
  partial kinetic energy density read in
  atomic valenz-charges read in
  non local Contribution for L=           0  read in
    real space projection operators read in
  non local Contribution for L=           0  read in
    real space projection operators read in
  non local Contribution for L=           1  read in
    real space projection operators read in
  non local Contribution for L=           1  read in
    real space projection operators read in
    PAW grid and wavefunctions read in
 
   number of l-projection  operators is LMAX  =           4
   number of lm-projection operators is LMMAX =           8
 
 POTCAR:    PAW_PBE O 08Apr2002                   
   VRHFIN =O: s2p4                                                              
   LEXCH  = PE                                                                  
   EATOM  =   432.3788 eV,   31.7789 Ry                                         
                                                                                
   TITEL  = PAW_PBE O 08Apr2002                                                 
   LULTRA =        F    use ultrasoft PP ?                                      
   IUNSCR =        1    unscreen: 0-lin 1-nonlin 2-no                           
   RPACOR =    1.200    partial core radius                                     
   POMASS =   16.000; ZVAL   =    6.000    mass and valenz                      
   RCORE  =    1.520    outmost cutoff radius                                   
   RWIGS  =    1.550; RWIGS  =    0.820    wigner-seitz radius (au A)           
   ENMAX  =  400.000; ENMIN  =  300.000 eV                                      
   ICORE  =        2    local potential                                         
   LCOR   =        T    correct aug charges                                     
   LPAW   =        T    paw PP                                                  
   EAUG   =  605.392                                                            
   DEXC   =    0.000                                                            
   RMAX   =    1.553    core radius for proj-oper                               
   RAUG   =    1.300    factor for augmentation sphere                          
   RDEP   =    1.550    radius for radial grids                                 
   RDEPT  =    1.329    core radius for aug-charge                              
                                                                                
   Atomic configuration                                                         
    4 entries                                                                   
     n  l   j            E        occ.                                          
     1  0  0.50      -514.6923   2.0000                                         
     2  0  0.50       -23.9615   2.0000                                         
     2  1  0.50        -9.0305   4.0000                                         
     3  2  1.50        -9.5241   0.0000                                         
   Description                                                                  
     l       E           TYP  RCUT    TYP  RCUT                                 
     0    -23.9615318     23  1.200                                             
     0     -9.5240782     23  1.200                                             
     1     -9.0304911     23  1.520                                             
     1      8.1634956     23  1.520                                             
     2     -9.5240782      7  1.500                                             
  local pseudopotential read in
  partial core-charges read in
  partial kinetic energy density read in
  kinetic energy density of atom read in
  atomic valenz-charges read in
  non local Contribution for L=           0  read in
    real space projection operators read in
  non local Contribution for L=           0  read in
    real space projection operators read in
  non local Contribution for L=           1  read in
    real space projection operators read in
  non local Contribution for L=           1  read in
    real space projection operators read in
    PAW grid and wavefunctions read in
 
   number of l-projection  operators is LMAX  =           4
   number of lm-projection operators is LMMAX =           8
 
 Optimization of the real space projectors (new method)

 maximal supplied QI-value         = 14.36
 optimisation between [QCUT,QGAM] = [ 10.20, 20.39] = [ 29.12,116.47] Ry 
 Optimized for a Real-space Cutoff    1.55 Angstroem

   l    n(q)    QCUT    max X(q) W(low)/X(q) W(high)/X(q)  e(spline) 
   2      9    10.197    59.108    0.12E-03    0.40E-04    0.11E-06
   2      9    10.197    58.101    0.12E-03    0.39E-04    0.12E-06
   0      9    10.197   102.235    0.41E-04    0.86E-05    0.83E-07
   0      9    10.197    58.388    0.37E-04    0.79E-05    0.78E-07
   1      9    10.197    22.191    0.25E-03    0.13E-03    0.84E-07
   1      9    10.197    15.590    0.21E-03    0.11E-03    0.74E-07
 Optimization of the real space projectors (new method)

 maximal supplied QI-value         = 25.13
 optimisation between [QCUT,QGAM] = [ 10.05, 20.36] = [ 28.30,116.06] Ry 
 Optimized for a Real-space Cutoff    1.70 Angstroem

   l    n(q)    QCUT    max X(q) W(low)/X(q) W(high)/X(q)  e(spline) 
   0     10    10.053    79.467    0.61E-04    0.98E-04    0.61E-06
   0     10    10.053    66.151    0.60E-04    0.98E-04    0.61E-06
   1     10    10.053     8.350    0.17E-03    0.71E-03    0.45E-05
   1     10    10.053     5.531    0.18E-03    0.77E-03    0.49E-05
 Optimization of the real space projectors (new method)

 maximal supplied QI-value         = 24.76
 optimisation between [QCUT,QGAM] = [ 10.15, 20.30] = [ 28.85,115.39] Ry 
 Optimized for a Real-space Cutoff    1.51 Angstroem

   l    n(q)    QCUT    max X(q) W(low)/X(q) W(high)/X(q)  e(spline) 
   0      9    10.150    20.381    0.17E-03    0.18E-03    0.41E-06
   0      9    10.150    15.268    0.18E-03    0.20E-03    0.43E-06
   1      9    10.150     5.964    0.16E-03    0.20E-03    0.36E-06
   1      9    10.150     5.382    0.13E-03    0.16E-03    0.33E-06
  PAW_PBE Pd 04Jan2005                  :
 energy of atom  1       EATOM= -809.7530
 kinetic energy error for atom=    0.0091 (will be added to EATOM!!)
  PAW_PBE N 08Apr2002                   :
 energy of atom  2       EATOM= -264.5486
 kinetic energy error for atom=    0.0736 (will be added to EATOM!!)
  PAW_PBE O 08Apr2002                   :
 energy of atom  3       EATOM= -432.3788
 kinetic energy error for atom=    0.1156 (will be added to EATOM!!)
 
 
 POSCAR: Pd N O                                  
  positions in direct lattice
  velocities in cartesian coordinates
 exchange correlation table for  LEXCH =        8
   RHO(1)=    0.500       N(1)  =     2000
   RHO(2)=  100.500       N(2)  =     4000
 


--------------------------------------------------------------------------------------------------------


 ion  position               nearest neighbor table
   1  0.125  0.125  0.403-   2 2.75   5 2.75   4 2.75  13 2.75  17 2.75  21 2.75  18 2.76  22 2.77

   2  0.125  0.375  0.403-   1 2.75   3 2.75   6 2.75  14 2.75  18 2.75  23 2.75  19 2.76  22 2.76

   3  0.125  0.625  0.403-  24 2.75   4 2.75   7 2.75   2 2.75  15 2.75  23 2.76  19 2.76  20 2.76

   4  0.125  0.875  0.403-   3 2.75   8 2.75   1 2.75  16 2.75  24 2.75  21 2.75  20 2.76  17 2.77

   5  0.375  0.125  0.403-   1 2.75   6 2.75   9 2.75   8 2.75  21 2.75  26 2.75  25 2.75  22 2.77

   6  0.375  0.375  0.403-   2 2.75   5 2.75   7 2.75  10 2.75  27 2.75  26 2.75  23 2.76  22 2.76

   7  0.375  0.625  0.403-   3 2.75   6 2.75   8 2.75  11 2.75  28 2.75  24 2.75  27 2.75  23 2.77

   8  0.375  0.875  0.403-   4 2.75   7 2.75  12 2.75   5 2.75  25 2.75  28 2.75  21 2.75  24 2.76

   9  0.625  0.125  0.403-   5 2.75  10 2.75  13 2.75  12 2.75  25 2.75  26 2.75  29 2.75  30 2.76

  10  0.625  0.375  0.403-   6 2.75   9 2.75  11 2.75  14 2.75  26 2.75  30 2.76  27 2.76  31 2.76

  11  0.625  0.625  0.403-   7 2.75  10 2.75  12 2.75  15 2.75  31 2.75  28 2.75  32 2.75  27 2.76

  12  0.625  0.875  0.403-   8 2.75  11 2.75  16 2.75   9 2.75  25 2.75  32 2.75  28 2.76  29 2.76

  13  0.875  0.125  0.403-   9 2.75  14 2.75   1 2.75  16 2.75  29 2.75  30 2.75  17 2.75  18 2.77

  14  0.875  0.375  0.403-  30 2.74  13 2.75  15 2.75  10 2.75   2 2.75  31 2.76  18 2.76  19 2.76

  15  0.875  0.625  0.403-  11 2.75  14 2.75  16 2.75   3 2.75  31 2.75  20 2.75  32 2.76  19 2.76

  16  0.875  0.875  0.403-  12 2.75  15 2.75  13 2.75   4 2.75  20 2.75  29 2.75  32 2.75  17 2.77

  17  0.000  0.002  0.468-  36 2.73  29 2.74  18 2.74  21 2.74  48 2.75   1 2.75  13 2.75  45 2.75
                            20 2.76   4 2.77  16 2.77  33 2.77
  18  0.001  0.251  0.468-  22 2.73  19 2.73  45 2.74  17 2.74  30 2.75   2 2.75  46 2.75  14 2.76
                             1 2.76  33 2.76  13 2.77  34 2.78
  19  0.000  0.500  0.468-  18 2.73  23 2.73  46 2.74  31 2.75  35 2.75  20 2.75   3 2.76   2 2.76
                            47 2.76  15 2.76  14 2.76  34 2.78
  20  0.999  0.750  0.468-  32 2.74  36 2.74  16 2.75  19 2.75  35 2.75  15 2.75  48 2.75  24 2.75
                             4 2.76  47 2.76   3 2.76  17 2.76
  21  0.250  0.001  0.468-  36 2.74  37 2.74  17 2.74  22 2.75   1 2.75   5 2.75  25 2.75  40 2.75
                             4 2.75   8 2.75  24 2.76  33 2.77
  22  0.250  0.251  0.469-  18 2.73  23 2.73  37 2.74  21 2.75  26 2.75  33 2.75  38 2.75   2 2.76
                             6 2.76   1 2.77   5 2.77  34 2.77
  23  0.249  0.499  0.468-  22 2.73  19 2.73  27 2.74  39 2.74  24 2.75   2 2.75   3 2.76  35 2.76
                             6 2.76  38 2.77   7 2.77  34 2.77
  24  0.250  0.749  0.468-  40 2.74  28 2.74  23 2.75   3 2.75   7 2.75  36 2.75  35 2.75  20 2.75
                             4 2.75   8 2.76  21 2.76  39 2.76
  25  0.500  1.000  0.468-  44 2.74  37 2.75  40 2.75  12 2.75  28 2.75  29 2.75  41 2.75  26 2.75
                            21 2.75   9 2.75   8 2.75   5 2.75
  26  0.500  0.250  0.468-  42 2.74  37 2.74  27 2.74  22 2.75  25 2.75  41 2.75   6 2.75   5 2.75
                            10 2.75   9 2.75  30 2.76  38 2.78
  27  0.499  0.500  0.468-  42 2.74  28 2.74  23 2.74  43 2.74  26 2.74   7 2.75   6 2.75  31 2.76
                            11 2.76  10 2.76  39 2.76  38 2.78
  28  0.500  0.749  0.468-  40 2.73  43 2.73  27 2.74  24 2.74  32 2.75   7 2.75  25 2.75  11 2.75
                            44 2.75   8 2.75  12 2.76  39 2.79
  29  0.751  0.000  0.468-  41 2.73  17 2.74  48 2.74  32 2.74  30 2.75  13 2.75  25 2.75  16 2.75
                            44 2.75   9 2.75  12 2.76  45 2.79
  30  0.751  0.250  0.468-  41 2.74  14 2.74  29 2.75  42 2.75  18 2.75  13 2.75  31 2.75  46 2.75
                            10 2.76  26 2.76   9 2.76  45 2.76
  31  0.750  0.501  0.468-  42 2.74  32 2.74  19 2.75  15 2.75  11 2.75  43 2.75  30 2.75  46 2.75
                            14 2.76  27 2.76  10 2.76  47 2.76
  32  0.750  0.751  0.468-  20 2.74  44 2.74  31 2.74  29 2.74  28 2.75  12 2.75  16 2.75  43 2.75
                            11 2.75  15 2.76  48 2.76  47 2.77
  33  0.126  0.126  0.534-  45 2.73  34 2.74  37 2.74  49 2.74  22 2.75  36 2.75  54 2.75  18 2.76
                            21 2.77  17 2.77  53 2.78  50 2.82
  34  0.126  0.376  0.535-  38 2.72  33 2.74  35 2.75  46 2.75  23 2.77  22 2.77  18 2.78  19 2.78
                            50 2.81  55 2.83  51 2.86  54 2.93
  35  0.124  0.626  0.533-  39 2.72  47 2.73  36 2.74  19 2.75  20 2.75  34 2.75  24 2.75  23 2.76
                            56 2.76  52 2.78  51 2.79  55 2.80
  36  0.125  0.876  0.532-  17 2.73  53 2.74  21 2.74  48 2.74  20 2.74  35 2.74  24 2.75  40 2.75
                            33 2.75  52 2.75  56 2.76  49 2.77
  37  0.375  0.125  0.533-  54 2.65  33 2.74  22 2.74  21 2.74  26 2.74  25 2.75  38 2.75  40 2.76
                            41 2.76  57 2.76  58 2.78  53 2.79
  38  0.374  0.375  0.534-  34 2.72  39 2.72  59 2.74  37 2.75  22 2.75  42 2.76  58 2.76  23 2.77
                            27 2.78  26 2.78  54 2.80  55 2.84
  39  0.372  0.623  0.534-  35 2.72  38 2.72  55 2.74  23 2.74  59 2.75  40 2.75  56 2.76  60 2.76
                            43 2.76  24 2.76  27 2.76  28 2.79
  40  0.375  0.874  0.532-  28 2.73  53 2.74  24 2.74  44 2.75  25 2.75  21 2.75  36 2.75  60 2.75
                            39 2.75  37 2.76  56 2.76  57 2.76
  41  0.627  0.125  0.532-  29 2.73  58 2.73  30 2.74  44 2.74  25 2.75  26 2.75  42 2.75  61 2.75
                            45 2.76  37 2.76  62 2.76  57 2.76
  42  0.625  0.375  0.532-  27 2.74  26 2.74  58 2.74  31 2.74  63 2.74  30 2.75  43 2.75  41 2.75
                            46 2.75  38 2.76  62 2.76  59 2.77
  43  0.624  0.626  0.533-  28 2.73  63 2.73  44 2.74  27 2.74  42 2.75  31 2.75  32 2.75  60 2.75
                            39 2.76  59 2.76  47 2.77  64 2.77
  44  0.625  0.875  0.533-  57 2.73  32 2.74  64 2.74  43 2.74  25 2.74  41 2.74  48 2.74  40 2.75
                            29 2.75  28 2.75  60 2.77  61 2.77
  45  0.878  0.128  0.534-  46 2.72  33 2.73  18 2.74  49 2.74  62 2.74  17 2.75  41 2.76  48 2.76
                            61 2.76  30 2.76  50 2.79  29 2.79
  46  0.875  0.376  0.533-  45 2.72  47 2.74  19 2.74  62 2.74  18 2.75  42 2.75  34 2.75  31 2.75
                            30 2.75  63 2.77  51 2.80  50 2.84
  47  0.875  0.625  0.534-  51 2.68  35 2.73  46 2.74  63 2.76  20 2.76  48 2.76  64 2.76  19 2.76
                            31 2.76  52 2.76  43 2.77  32 2.77
  48  0.875  0.877  0.533-  52 2.74  29 2.74  36 2.74  44 2.74  17 2.75  61 2.75  20 2.75  45 2.76
                            32 2.76  47 2.76  64 2.76  49 2.77
  49  0.001  0.002  0.598-  52 2.71  50 2.72  33 2.74  45 2.74  53 2.75  61 2.75  48 2.77  36 2.77

  50  0.999  0.249  0.602-  66 2.05  49 2.72  62 2.74  45 2.79  34 2.81  33 2.82  46 2.84  51 2.87
                            54 2.91
  51  0.992  0.510  0.600-  66 1.98  47 2.68  52 2.69  63 2.71  35 2.79  46 2.80  55 2.85  34 2.86
                            50 2.87
  52  0.999  0.755  0.598-  51 2.69  49 2.71  56 2.74  48 2.74  36 2.75  64 2.76  47 2.76  35 2.78

  53  0.251  0.993  0.598-  54 2.64  56 2.64  40 2.74  36 2.74  49 2.75  57 2.75  33 2.78  37 2.79

  54  0.263  0.233  0.600-  67 2.09  53 2.64  37 2.65  58 2.66  33 2.75  38 2.80  50 2.91  34 2.93
                            55 3.03
  55  0.251  0.508  0.602-  65 2.10  56 2.68  59 2.74  39 2.74  35 2.80  34 2.83  38 2.84  51 2.85
                            54 3.03
  56  0.249  0.752  0.598-  53 2.64  55 2.68  52 2.74  60 2.75  39 2.76  36 2.76  35 2.76  40 2.76

  57  0.501  0.999  0.598-  60 2.73  44 2.73  61 2.74  53 2.75  58 2.75  37 2.76  40 2.76  41 2.76

  58  0.505  0.249  0.598-  54 2.66  62 2.68  41 2.73  42 2.74  59 2.75  57 2.75  38 2.76  37 2.78

  59  0.500  0.500  0.598-  63 2.70  55 2.74  38 2.74  39 2.75  60 2.75  58 2.75  43 2.76  42 2.77

  60  0.499  0.750  0.598-  57 2.73  64 2.74  59 2.75  56 2.75  43 2.75  40 2.75  39 2.76  44 2.77

  61  0.750  0.001  0.598-  57 2.74  64 2.74  62 2.75  48 2.75  49 2.75  41 2.75  45 2.76  44 2.77

  62  0.750  0.252  0.598-  58 2.68  63 2.74  50 2.74  46 2.74  45 2.74  61 2.75  42 2.76  41 2.76

  63  0.745  0.501  0.598-  59 2.70  51 2.71  43 2.73  62 2.74  42 2.74  64 2.76  47 2.76  46 2.77

  64  0.748  0.752  0.598-  60 2.74  61 2.74  44 2.74  52 2.76  63 2.76  47 2.76  48 2.76  43 2.77

  65  0.167  0.405  0.652-  66 1.28  67 1.33  55 2.10
  66  0.055  0.388  0.643-  65 1.28  51 1.98  50 2.05
  67  0.236  0.310  0.663-  65 1.33  54 2.09
 
  LATTYP: Found a simple tetragonal cell.
 ALAT       =    10.9820000000
 C/A-ratio  =     2.7317428519
  
  Lattice vectors:
  
 A1 = (  10.9820000000,   0.0000000000,   0.0000000000)
 A2 = (   0.0000000000,  10.9820000000,   0.0000000000)
 A3 = (   0.0000000000,   0.0000000000,  30.0000000000)


Analysis of symmetry for initial positions (statically):
=====================================================================
 Subroutine PRICEL returns:
 Original cell was already a primitive cell.
 

 Routine SETGRP: Setting up the symmetry group for a 
 simple tetragonal supercell.


 Subroutine GETGRP returns: Found  1 space group operations
 (whereof  1 operations were pure point group operations)
 out of a pool of 16 trial point group operations.


The static configuration has the point symmetry C_1 .


Analysis of symmetry for dynamics (positions and initial velocities):
=====================================================================
 Subroutine PRICEL returns:
 Original cell was already a primitive cell.
 

 Routine SETGRP: Setting up the symmetry group for a 
 simple tetragonal supercell.


 Subroutine GETGRP returns: Found  1 space group operations
 (whereof  1 operations were pure point group operations)
 out of a pool of 16 trial point group operations.


The dynamic configuration has the point symmetry C_1 .


Analysis of constrained symmetry for selective dynamics:
=====================================================================
 Subroutine PRICEL returns:
 Original cell was already a primitive cell.
 

 Routine SETGRP: Setting up the symmetry group for a 
 simple tetragonal supercell.


 Subroutine GETGRP returns: Found  1 space group operations
 (whereof  1 operations were pure point group operations)
 out of a pool of 16 trial point group operations.


The constrained configuration has the point symmetry C_1 .


Analysis of structural, dynamic, and magnetic symmetry:
=====================================================================
 Subroutine PRICEL returns:
 Original cell was already a primitive cell.
 

 Routine SETGRP: Setting up the symmetry group for a 
 simple tetragonal supercell.


 Subroutine GETGRP returns: Found  1 space group operations
 (whereof  1 operations were pure point group operations)
 out of a pool of 16 trial point group operations.


The magnetic configuration has the point symmetry C_1 .


 Subroutine INISYM returns: Found  1 space group operations
 (whereof  1 operations are pure point group operations),
 and found     1 'primitive' translations

 
 
 KPOINTS: K-Point Grid                            

Automatic generation of k-mesh.
Space group operators:
 irot       det(A)        alpha          n_x          n_y          n_z        tau_x        tau_y        tau_z
    1     1.000000     0.000001     1.000000     0.000000     0.000000     0.000000     0.000000     0.000000
 
 Subroutine IBZKPT returns following result:
 ===========================================
 
 Found      8 irreducible k-points:
 
 Following reciprocal coordinates:
            Coordinates               Weight
  0.125000  0.125000  0.000000      2.000000
  0.375000  0.125000  0.000000      2.000000
 -0.375000  0.125000  0.000000      2.000000
 -0.125000  0.125000  0.000000      2.000000
  0.125000  0.375000  0.000000      2.000000
  0.375000  0.375000  0.000000      2.000000
 -0.375000  0.375000  0.000000      2.000000
 -0.125000  0.375000  0.000000      2.000000
 
 Following cartesian coordinates:
            Coordinates               Weight
  0.011382  0.011382  0.000000      2.000000
  0.034147  0.011382  0.000000      2.000000
 -0.034147  0.011382  0.000000      2.000000
 -0.011382  0.011382  0.000000      2.000000
  0.011382  0.034147  0.000000      2.000000
  0.034147  0.034147  0.000000      2.000000
 -0.034147  0.034147  0.000000      2.000000
 -0.011382  0.034147  0.000000      2.000000
 


--------------------------------------------------------------------------------------------------------




 Dimension of arrays:
   k-points           NKPTS =      8   k-points in BZ     NKDIM =      8   number of bands    NBANDS=    576
   number of dos      NEDOS =   1200   number of ions     NIONS =     67
   non local maximal  LDIM  =      6   non local SUM 2l+1 LMDIM =     18
   total plane-waves  NPLWV = ******
   max r-space proj   IRMAX =   5807   max aug-charges    IRDMAX=  13820
   dimension x,y,z NGX =    72 NGY =   72 NGZ =  196
   dimension x,y,z NGXF=   144 NGYF=  144 NGZF=  392
   support grid    NGXF=   144 NGYF=  144 NGZF=  392
   ions per type =              64   2   1
   NGX,Y,Z   is equivalent  to a cutoff of  10.90, 10.90, 10.86 a.u.
   NGXF,Y,Z  is equivalent  to a cutoff of  21.80, 21.80, 21.72 a.u.

 SYSTEM =  Pd_100_surface                          
 POSCAR =  Pd N O                                  

 Startparameter for this run:
   NWRITE =      2    write-flag & timer
   PREC   = accura    normal or accurate (medium, high low for compatibility)
   ISTART =      0    job   : 0-new  1-cont  2-samecut
   ICHARG =      2    charge: 1-file 2-atom 10-const
   ISPIN  =      2    spin polarized calculation?
   LNONCOLLINEAR =      F non collinear calculations
   LSORBIT =      F    spin-orbit coupling
   INIWAV =      1    electr: 0-lowe 1-rand  2-diag
   LASPH  =      F    aspherical Exc in radial PAW
   METAGGA=      F    non-selfconsistent MetaGGA calc.

 Electronic Relaxation 1
   ENCUT  =  400.0 eV  29.40 Ry    5.42 a.u.  17.91 17.91 48.92*2*pi/ulx,y,z
   ENINI  =  400.0     initial cutoff
   ENAUG  =  627.1 eV  augmentation charge cutoff
   NELM   =    100;   NELMIN=  2; NELMDL=  0     # of ELM steps 
   EDIFF  = 0.1E-04   stopping-criterion for ELM
   LREAL  =      T    real-space projection
   NLSPLINE    = F    spline interpolate recip. space projectors
   LCOMPAT=      F    compatible to vasp.4.4
   GGA_COMPAT  = T    GGA compatible to vasp.4.4-vasp.4.6
   LMAXPAW     = -100 max onsite density
   LMAXMIX     =    2 max onsite mixed and CHGCAR
   VOSKOWN=      0    Vosko Wilk Nusair interpolation
   ROPT   =   -0.00025  -0.00025  -0.00025
 Ionic relaxation
   EDIFFG = -.2E-01   stopping-criterion for IOM
   NSW    =    100    number of steps for IOM
   NBLOCK =      1;   KBLOCK =    100    inner block; outer block 
   IBRION =      2    ionic relax: 0-MD 1-quasi-New 2-CG
   NFREE  =      1    steps in history (QN), initial steepest desc. (CG)
   ISIF   =      2    stress and relaxation
   IWAVPR =     11    prediction:  0-non 1-charg 2-wave 3-comb
   ISYM   =      2    0-nonsym 1-usesym 2-fastsym
   LCORR  =      T    Harris-Foulkes like correction to forces

   POTIM  = 0.5000    time-step for ionic-motion
   TEIN   =    0.0    initial temperature
   TEBEG  =    0.0;   TEEND  =   0.0 temperature during run
   SMASS  =  -3.00    Nose mass-parameter (am)
   estimated Nose-frequenzy (Omega)   =  0.10E-29 period in steps =****** mass=  -0.276E-26a.u.
   SCALEE = 1.0000    scale energy and forces
   NPACO  =    256;   APACO  = 16.0  distance and # of slots for P.C.
   PSTRESS=    0.0 pullay stress

  Mass of Ions in am
   POMASS = 106.42 14.00 16.00
  Ionic Valenz
   ZVAL   =  10.00  5.00  6.00
  Atomic Wigner-Seitz radii
   RWIGS  =  -1.00 -1.00 -1.00
  virtual crystal weights 
   VCA    =   1.00  1.00  1.00
   NELECT =     656.0000    total number of electrons
   NUPDOWN=      -1.0000    fix difference up-down

 DOS related values:
   EMIN   =  10.00;   EMAX   =-10.00  energy-range for DOS
   EFERMI =   0.00
   ISMEAR =     1;   SIGMA  =   0.20  broadening in eV -4-tet -1-fermi 0-gaus

 Electronic relaxation 2 (details)
   IALGO  =     68    algorithm
   LDIAG  =      T    sub-space diagonalisation (order eigenvalues)
   LSUBROT=      F    optimize rotation matrix (better conditioning)
   TURBO    =      0    0=normal 1=particle mesh
   IRESTART =      0    0=no restart 2=restart with 2 vectors
   NREBOOT  =      0    no. of reboots
   NMIN     =      0    reboot dimension
   EREF     =   0.00    reference energy to select bands
   IMIX   =      4    mixing-type and parameters
     AMIX     =   0.40;   BMIX     =  1.00
     AMIX_MAG =   1.60;   BMIX_MAG =  1.00
     AMIN     =   0.10
     WC   =   100.;   INIMIX=   1;  MIXPRE=   1;  MAXMIX= -45

 Intra band minimization:
   WEIMIN = 0.0010     energy-eigenvalue tresh-hold
   EBREAK =  0.43E-08  absolut break condition
   DEPER  =   0.30     relativ break condition  

   TIME   =   0.40     timestep for ELM

  volume/ion in A,a.u.               =      54.00       364.42
  Fermi-wavevector in a.u.,A,eV,Ry     =   0.926577  1.750976 11.681207  0.858544
  Thomas-Fermi vector in A             =   2.052554
 
 Write flags
   LWAVE        =      F    write WAVECAR
   LDOWNSAMPLE  =      F    k-point downsampling of WAVECAR
   LCHARG       =      F    write CHGCAR
   LVTOT        =      F    write LOCPOT, total local potential
   LVHAR        =      F    write LOCPOT, Hartree potential only
   LELF         =      F    write electronic localiz. function (ELF)
   LORBIT       =     11    0 simple, 1 ext, 2 COOP (PROOUT), +10 PAW based schemes


 Dipole corrections
   LMONO  =      F    monopole corrections only (constant potential shift)
   LDIPOL =      T    correct potential (dipole corrections)
   IDIPOL =      3    1-x, 2-y, 3-z, 4-all directions 
   EPSILON=  1.0000000 bulk dielectric constant

 Exchange correlation treatment:
   GGA     =    --    GGA type
   LEXCH   =     8    internal setting for exchange type
   VOSKOWN=      0    Vosko Wilk Nusair interpolation
   LHFCALC =     F    Hartree Fock is set to
   LHFONE  =     F    Hartree Fock one center treatment
   AEXX    =    0.0000 exact exchange contribution

 Linear response parameters
   LEPSILON=     F    determine dielectric tensor
   LRPA    =     F    only Hartree local field effects (RPA)
   LNABLA  =     F    use nabla operator in PAW spheres
   LVEL    =     F    velocity operator in full k-point grid
   LINTERFAST=   F  fast interpolation
   KINTER  =     0    interpolate to denser k-point grid
   CSHIFT  =0.1000    complex shift for real part using Kramers Kronig
   OMEGAMAX=  -1.0    maximum frequency
   DEG_THRESHOLD= 0.2000000E-02 threshold for treating states as degnerate
   RTIME   =   -0.100 relaxation time in fs
  (WPLASMAI=    0.000 imaginary part of plasma frequency in eV, 0.658/RTIME)
   DFIELD  = 0.0000000 0.0000000 0.0000000 field for delta impulse in time
 
 Orbital magnetization related:
   ORBITALMAG=     F  switch on orbital magnetization
   LCHIMAG   =     F  perturbation theory with respect to B field
   DQ        =  0.001000  dq finite difference perturbation B field
   LLRAUG    =     F  two centre corrections for induced B field



--------------------------------------------------------------------------------------------------------


 conjugate gradient relaxation of ions
   using selective dynamics as specified on POSCAR
 charge density and potential will be updated during run
 spin polarized calculation
 RMM-DIIS sequential band-by-band and
  variant of blocked Davidson during initial phase
 perform sub-space diagonalisation
    before iterative eigenvector-optimisation
 modified Broyden-mixing scheme, WC =      100.0
 initial mixing is a Kerker type mixing with AMIX =  0.4000 and BMIX =      1.0000
 Hartree-type preconditioning will be used
 using additional bands          248
 real space projection scheme for non local part
 use partial core corrections
 calculate Harris-corrections to forces 
   (improved forces if not selfconsistent)
 use gradient corrections 
 use of overlap-Matrix (Vanderbilt PP)
 Methfessel and Paxton  Order N= 1 SIGMA  =   0.20


--------------------------------------------------------------------------------------------------------


  energy-cutoff  :      400.00
  volume of cell :     3618.13
      direct lattice vectors                 reciprocal lattice vectors
    10.982000000  0.000000000  0.000000000     0.091058095  0.000000000  0.000000000
     0.000000000 10.982000000  0.000000000     0.000000000  0.091058095  0.000000000
     0.000000000  0.000000000 30.000000000     0.000000000  0.000000000  0.033333333

  length of vectors
    10.982000000 10.982000000 30.000000000     0.091058095  0.091058095  0.033333333


 
 k-points in units of 2pi/SCALE and weight: K-Point Grid                            
   0.01138226  0.01138226  0.00000000       0.125
   0.03414679  0.01138226  0.00000000       0.125
  -0.03414679  0.01138226  0.00000000       0.125
  -0.01138226  0.01138226  0.00000000       0.125
   0.01138226  0.03414679  0.00000000       0.125
   0.03414679  0.03414679  0.00000000       0.125
  -0.03414679  0.03414679  0.00000000       0.125
  -0.01138226  0.03414679  0.00000000       0.125
 
 k-points in reciprocal lattice and weights: K-Point Grid                            
   0.12500000  0.12500000  0.00000000       0.125
   0.37500000  0.12500000  0.00000000       0.125
  -0.37500000  0.12500000  0.00000000       0.125
  -0.12500000  0.12500000  0.00000000       0.125
   0.12500000  0.37500000  0.00000000       0.125
   0.37500000  0.37500000  0.00000000       0.125
  -0.37500000  0.37500000  0.00000000       0.125
  -0.12500000  0.37500000  0.00000000       0.125
 
 position of ions in fractional coordinates (direct lattice) 
   0.12499955  0.12499955  0.40293227
   0.12499955  0.37499864  0.40293227
   0.12499955  0.62499774  0.40293227
   0.12499955  0.87499683  0.40293227
   0.37499864  0.12499955  0.40293227
   0.37499864  0.37499864  0.40293227
   0.37499864  0.62499774  0.40293227
   0.37499864  0.87499683  0.40293227
   0.62499774  0.12499955  0.40293227
   0.62499774  0.37499864  0.40293227
   0.62499774  0.62499774  0.40293227
   0.62499774  0.87499683  0.40293227
   0.87499683  0.12499955  0.40293227
   0.87499683  0.37499864  0.40293227
   0.87499683  0.62499774  0.40293227
   0.87499683  0.87499683  0.40293227
   0.00003310  0.00174581  0.46817952
   0.00114282  0.25131543  0.46837120
   0.00028918  0.50000646  0.46833946
   0.99910464  0.75027885  0.46802795
   0.24993347  0.00051384  0.46792434
   0.24978238  0.25054835  0.46851706
   0.24920208  0.49927949  0.46827917
   0.24980232  0.74925125  0.46787661
   0.50035387  0.99967683  0.46790327
   0.49990479  0.25005525  0.46794488
   0.49884911  0.49999964  0.46807265
   0.49968773  0.74946446  0.46793164
   0.75066508  0.00036103  0.46791997
   0.75110600  0.25031912  0.46791249
   0.75022781  0.50097601  0.46806145
   0.74967511  0.75059927  0.46797199
   0.12615442  0.12642254  0.53389496
   0.12582187  0.37568182  0.53483025
   0.12406624  0.62607737  0.53312710
   0.12458439  0.87586991  0.53228225
   0.37549295  0.12460931  0.53265197
   0.37382630  0.37469387  0.53412615
   0.37209335  0.62280561  0.53377133
   0.37513458  0.87351834  0.53232985
   0.62672260  0.12494729  0.53236717
   0.62475801  0.37544236  0.53222007
   0.62351237  0.62559497  0.53268396
   0.62511622  0.87516230  0.53264150
   0.87773971  0.12778037  0.53364656
   0.87529403  0.37588540  0.53313002
   0.87540625  0.62544423  0.53367577
   0.87499133  0.87670760  0.53293624
   0.00099837  0.00206319  0.59841828
   0.99934110  0.24949806  0.60189934
   0.99161095  0.51026486  0.60014916
   0.99926639  0.75501393  0.59837607
   0.25095056  0.99319150  0.59810646
   0.26348302  0.23279347  0.60013449
   0.25094810  0.50822054  0.60155934
   0.24856842  0.75238637  0.59836053
   0.50137380  0.99871309  0.59755525
   0.50547765  0.24923277  0.59769288
   0.49982941  0.49971234  0.59825786
   0.49921376  0.75007775  0.59806236
   0.75040195  0.00124419  0.59811333
   0.74991994  0.25166267  0.59785029
   0.74546927  0.50112139  0.59779666
   0.74830742  0.75214258  0.59806609
   0.16703664  0.40485729  0.65203083
   0.05453731  0.38818454  0.64282463
   0.23591096  0.31025739  0.66303207
 
 position of ions in cartesian coordinates  (Angst):
   1.37274503  1.37274503 12.08796804
   1.37274503  4.11823509 12.08796804
   1.37274503  6.86372514 12.08796804
   1.37274503  9.60921520 12.08796804
   4.11823509  1.37274503 12.08796804
   4.11823509  4.11823509 12.08796804
   4.11823509  6.86372514 12.08796804
   4.11823509  9.60921520 12.08796804
   6.86372514  1.37274503 12.08796804
   6.86372514  4.11823509 12.08796804
   6.86372514  6.86372514 12.08796804
   6.86372514  9.60921520 12.08796804
   9.60921520  1.37274503 12.08796804
   9.60921520  4.11823509 12.08796804
   9.60921520  6.86372514 12.08796804
   9.60921520  9.60921520 12.08796804
   0.00036354  0.01917253 14.04538572
   0.01255042  2.75994603 14.05113608
   0.00317581  5.49107090 14.05018391
  10.97216710  8.23956237 14.04083843
   2.74476941  0.00564302 14.03773009
   2.74311008  2.75152196 14.05551169
   2.73673720  5.48308739 14.04837523
   2.74332907  8.22827722 14.03629827
   5.49488623 10.97845090 14.03709821
   5.48995439  2.74610678 14.03834652
   5.47836090  5.49099600 14.04217944
   5.48757063  8.23061867 14.03794931
   8.24380386  0.00396479 14.03759914
   8.24864604  2.74900461 14.03737482
   8.23900185  5.50171855 14.04184339
   8.23293200  8.24308116 14.03915976
   1.38542788  1.38837236 16.01684870
   1.38177573  4.12573777 16.04490755
   1.36249540  6.87558170 15.99381315
   1.36818577  9.61880332 15.96846742
   4.12366355  1.36845942 15.97955909
   4.10536041  4.11488803 16.02378436
   4.08632919  6.83965117 16.01313984
   4.11972792  9.59297841 15.96989543
   6.88266763  1.37217111 15.97101497
   6.86109250  4.12310803 15.96660218
   6.84741288  6.87028401 15.98051876
   6.86502637  9.61103233 15.97924487
   9.63933752  1.40328404 16.00939669
   9.61247909  4.12797342 15.99390056
   9.61371140  6.86862852 16.01027313
   9.60915482  9.62800286 15.98808734
   0.01096411  0.02265798 17.95254826
  10.97476394  2.73998773 18.05698015
  10.88987150  5.60372867 18.00447489
  10.97394352  8.29156298 17.95128208
   2.75593901 10.90722907 17.94319383
   2.89357050  2.55653792 18.00403466
   2.75591198  5.58127795 18.04678030
   2.72977837  8.26270713 17.95081596
   5.50608705 10.96786713 17.92665746
   5.55115559  2.73707431 17.93078649
   5.48912661  5.48784088 17.94773586
   5.48236550  8.23735389 17.94187090
   8.24091416  0.01366372 17.94339983
   8.23562082  2.76375949 17.93550873
   8.18674350  5.50331510 17.93389971
   8.21791212  8.26002986 17.94198265
   1.83439639  4.44614271 19.56092493
   0.59892875  4.26304260 19.28473897
   2.59077412  3.40724663 19.89096208
 


--------------------------------------------------------------------------------------------------------


 k-point  1 :   0.1250 0.1250 0.0000  plane waves:   65671
 k-point  2 :   0.3750 0.1250 0.0000  plane waves:   65719
 k-point  3 :  -0.3750 0.1250 0.0000  plane waves:   65719
 k-point  4 :  -0.1250 0.1250 0.0000  plane waves:   65671
 k-point  5 :   0.1250 0.3750 0.0000  plane waves:   65719
 k-point  6 :   0.3750 0.3750 0.0000  plane waves:   65776
 k-point  7 :  -0.3750 0.3750 0.0000  plane waves:   65776
 k-point  8 :  -0.1250 0.3750 0.0000  plane waves:   65719

 maximum and minimum number of plane-waves per node :     65776    65671

 maximum number of plane-waves:     65776
 maximum index in each direction: 
   IXMAX=   18   IYMAX=   17   IZMAX=   48
   IXMIN=  -18   IYMIN=  -18   IZMIN=  -48


 serial   3D FFT for wavefunctions
 parallel 3D FFT for charge:
    minimum data exchange during FFTs selected (reduces bandwidth)


 total amount of memory used by VASP MPI-rank0   227192. kBytes
=======================================================================

   base      :      30000. kBytes
   nonlr-proj:      51074. kBytes
   fftplans  :       5987. kBytes
   grid      :      86439. kBytes
   one-center:       2083. kBytes
   wavefun   :      51609. kBytes
 
     INWAV:  cpu time    0.0000: real time    0.0000
 Broyden mixing: mesh for mixing (old mesh)
   NGX = 35   NGY = 35   NGZ = 97
  (NGX  =144   NGY  =144   NGZ  =392)
  gives a total of 118825 points

 initial charge density was supplied:
 charge density of overlapping atoms calculated
 number of electron     656.0000000 magnetization      67.0000000
 keeping initial charge density in first step


--------------------------------------------------------------------------------------------------------


 Maximum index for non-local projection operator         5580
 Maximum index for augmentation-charges          678 (set IRDMAX)


--------------------------------------------------------------------------------------------------------


 First call to EWALD:  gamma=   0.115
 Maximum number of real-space cells 4x 4x 2
 Maximum number of reciprocal cells 2x 2x 5

    FEWALD:  cpu time    0.0211: real time    0.0106


--------------------------------------- Iteration      1(   1)  ---------------------------------------


    POTLOK:  cpu time    0.6257: real time    0.4635
    SETDIJ:  cpu time    0.0864: real time    0.0490
     EDDAV:  cpu time  116.8873: real time   58.5967
       DOS:  cpu time    0.0586: real time    0.0294
    --------------------------------------------
      LOOP:  cpu time  117.6584: real time   59.1387

 eigenvalue-minimisations  : 18432
 total energy-change (2. order) : 0.3296558E+04  (-0.2453611E+05)
 number of electron     656.0000000 magnetization      67.0000000
 augmentation part      656.0000000 magnetization      67.0000000

 DIPCOR: dipole corrections for dipol
 direction  3 min pos     1,
 dipolmoment           0.000000      0.000000     -0.000075 electrons x Angstroem
 Tr[quadrupol]    -13457.580424

 energy correction for charged system         0.000000 eV
 dipol+quadrupol energy correction           -0.000000 eV
 added-field ion interaction          0.000329 eV  (added to PSCEN)


 Free energy of the ion-electron system (eV)
  ---------------------------------------------------
  alpha Z        PSCENC =       768.29272363
  Ewald energy   TEWEN  =    385223.17853425
  -Hartree energ DENC   =   -438404.35584508
  -exchange      EXHF   =         0.00000000
  -V(xc)+E(xc)   XCENC  =     -1811.07953561
  PAW double counting   =     52381.46596145   -48403.82813590
  entropy T*S    EENTRO =         0.00070560
  eigenvalues    EBANDS =       758.06127440
  atomic energy  EATOM  =     52784.82232594
  Solvation  Ediel_sol  =         0.00000000
  ---------------------------------------------------
  free energy    TOTEN  =      3296.55800868 eV

  energy without entropy =     3296.55730308  energy(sigma->0) =     3296.55777348


--------------------------------------------------------------------------------------------------------




--------------------------------------- Iteration      1(   2)  ---------------------------------------


     EDDAV:  cpu time  133.1024: real time   66.7139
       DOS:  cpu time    0.0060: real time    0.0030
    --------------------------------------------
      LOOP:  cpu time  133.1082: real time   66.7169

 eigenvalue-minimisations  : 20352
 total energy-change (2. order) :-0.3531214E+04  (-0.3359874E+04)
 number of electron     656.0000000 magnetization      67.0000000
 augmentation part      656.0000000 magnetization      67.0000000

 DIPCOR: dipole corrections for dipol
 direction  3 min pos     1,
 dipolmoment           0.000000      0.000000     -0.000075 electrons x Angstroem
 Tr[quadrupol]    -13457.580424

 energy correction for charged system         0.000000 eV
 dipol+quadrupol energy correction           -0.000000 eV
 added-field ion interaction          0.000329 eV  (added to PSCEN)


 Free energy of the ion-electron system (eV)
  ---------------------------------------------------
  alpha Z        PSCENC =       768.29272363
  Ewald energy   TEWEN  =    385223.17853425
  -Hartree energ DENC   =   -438404.35584508
  -exchange      EXHF   =         0.00000000
  -V(xc)+E(xc)   XCENC  =     -1811.07953561
  PAW double counting   =     52381.46596145   -48403.82813590
  entropy T*S    EENTRO =         0.10918910
  eigenvalues    EBANDS =     -2773.26079983
  atomic energy  EATOM  =     52784.82232594
  Solvation  Ediel_sol  =         0.00000000
  ---------------------------------------------------
  free energy    TOTEN  =      -234.65558204 eV

  energy without entropy =     -234.76477114  energy(sigma->0) =     -234.69197840


--------------------------------------------------------------------------------------------------------




--------------------------------------- Iteration      1(   3)  ---------------------------------------


     EDDAV:  cpu time  191.9322: real time   96.3870
       DOS:  cpu time    0.0077: real time    0.0039
    --------------------------------------------
      LOOP:  cpu time  191.9398: real time   96.3908

 eigenvalue-minimisations  : 24576
 total energy-change (2. order) :-0.1093369E+03  (-0.1078701E+03)
 number of electron     656.0000000 magnetization      67.0000000
 augmentation part      656.0000000 magnetization      67.0000000

 DIPCOR: dipole corrections for dipol
 direction  3 min pos     1,
 dipolmoment           0.000000      0.000000     -0.000075 electrons x Angstroem
 Tr[quadrupol]    -13457.580424

 energy correction for charged system         0.000000 eV
 dipol+quadrupol energy correction           -0.000000 eV
 added-field ion interaction          0.000329 eV  (added to PSCEN)


 Free energy of the ion-electron system (eV)
  ---------------------------------------------------
  alpha Z        PSCENC =       768.29272363
  Ewald energy   TEWEN  =    385223.17853425
  -Hartree energ DENC   =   -438404.35584508
  -exchange      EXHF   =         0.00000000
  -V(xc)+E(xc)   XCENC  =     -1811.07953561
  PAW double counting   =     52381.46596145   -48403.82813590
  entropy T*S    EENTRO =         0.14775152
  eigenvalues    EBANDS =     -2882.63621628
  atomic energy  EATOM  =     52784.82232594
  Solvation  Ediel_sol  =         0.00000000
  ---------------------------------------------------
  free energy    TOTEN  =      -343.99243608 eV

  energy without entropy =     -344.14018759  energy(sigma->0) =     -344.04168658


--------------------------------------------------------------------------------------------------------




--------------------------------------- Iteration      1(   4)  ---------------------------------------


     EDDAV:  cpu time  138.9757: real time   69.6578
       DOS:  cpu time    0.0060: real time    0.0030
    --------------------------------------------
      LOOP:  cpu time  138.9817: real time   69.6608

 eigenvalue-minimisations  : 20928
 total energy-change (2. order) :-0.1611852E+01  (-0.1611247E+01)
 number of electron     656.0000000 magnetization      67.0000000
 augmentation part      656.0000000 magnetization      67.0000000

 DIPCOR: dipole corrections for dipol
 direction  3 min pos     1,
 dipolmoment           0.000000      0.000000     -0.000075 electrons x Angstroem
 Tr[quadrupol]    -13457.580424

 energy correction for charged system         0.000000 eV
 dipol+quadrupol energy correction           -0.000000 eV
 added-field ion interaction          0.000329 eV  (added to PSCEN)


 Free energy of the ion-electron system (eV)
  ---------------------------------------------------
  alpha Z        PSCENC =       768.29272363
  Ewald energy   TEWEN  =    385223.17853425
  -Hartree energ DENC   =   -438404.35584508
  -exchange      EXHF   =         0.00000000
  -V(xc)+E(xc)   XCENC  =     -1811.07953561
  PAW double counting   =     52381.46596145   -48403.82813590
  entropy T*S    EENTRO =         0.14914863
  eigenvalues    EBANDS =     -2884.24946568
  atomic energy  EATOM  =     52784.82232594
  Solvation  Ediel_sol  =         0.00000000
  ---------------------------------------------------
  free energy    TOTEN  =      -345.60428836 eV

  energy without entropy =     -345.75343700  energy(sigma->0) =     -345.65400457


--------------------------------------------------------------------------------------------------------




--------------------------------------- Iteration      1(   5)  ---------------------------------------


     EDDAV:  cpu time  236.7564: real time  118.9379
       DOS:  cpu time    0.0054: real time    0.0027
    CHARGE:  cpu time    2.0814: real time    1.6947
    MIXING:  cpu time    0.1520: real time    0.0762
    --------------------------------------------
      LOOP:  cpu time  238.9953: real time  120.7115

 eigenvalue-minimisations  : 28416
 total energy-change (2. order) :-0.7545236E-01  (-0.7545110E-01)
 number of electron     655.9999606 magnetization      64.6467983
 augmentation part      260.1071198 magnetization      50.6584787

 DIPCOR: dipole corrections for dipol
 direction  3 min pos     1,
 dipolmoment           0.000000      0.000000     -0.000075 electrons x Angstroem
 Tr[quadrupol]    -13457.580424

 energy correction for charged system         0.000000 eV
 dipol+quadrupol energy correction           -0.000000 eV
 added-field ion interaction          0.000329 eV  (added to PSCEN)


 Broyden mixing:
  rms(total) = 0.58970E+01    rms(broyden)= 0.58964E+01
  rms(prec ) = 0.59532E+01
  weight for this iteration     100.00

 Free energy of the ion-electron system (eV)
  ---------------------------------------------------
  alpha Z        PSCENC =       768.29272363
  Ewald energy   TEWEN  =    385223.17853425
  -Hartree energ DENC   =   -438404.35584508
  -exchange      EXHF   =         0.00000000
  -V(xc)+E(xc)   XCENC  =     -1811.07953561
  PAW double counting   =     52381.46596145   -48403.82813590
  entropy T*S    EENTRO =         0.14919158
  eigenvalues    EBANDS =     -2884.32496098
  atomic energy  EATOM  =     52784.82232594
  Solvation  Ediel_sol  =         0.00000000
  ---------------------------------------------------
  free energy    TOTEN  =      -345.67974072 eV

  energy without entropy =     -345.82893230  energy(sigma->0) =     -345.72947125


--------------------------------------------------------------------------------------------------------




--------------------------------------- Iteration      1(   6)  ---------------------------------------


    POTLOK:  cpu time    0.3189: real time    0.2656
    SETDIJ:  cpu time    0.0309: real time    0.0206
    EDDIAG:  cpu time   14.6306: real time    7.3326
  RMM-DIIS:  cpu time   24.0547: real time   12.5912
    ORTHCH:  cpu time    4.6594: real time    2.3448
       DOS:  cpu time    0.0082: real time    0.0041
    CHARGE:  cpu time    2.2327: real time    1.8993
    MIXING:  cpu time    0.0446: real time    0.0224
    --------------------------------------------
      LOOP:  cpu time   45.9799: real time   24.4806

 eigenvalue-minimisations  : 18442
 total energy-change (2. order) : 0.2677155E+02  (-0.5132163E+01)
 number of electron     655.9999587 magnetization      61.8016820
 augmentation part      271.5569084 magnetization      46.8828835

 DIPCOR: dipole corrections for dipol
 direction  3 min pos     1,
 dipolmoment           0.000000      0.000000      0.258639 electrons x Angstroem
 Tr[quadrupol]    -13461.742202

 energy correction for charged system         0.000000 eV
 dipol+quadrupol energy correction           -0.001673 eV
 added-field ion interaction         -1.133561 eV  (added to PSCEN)


 Broyden mixing:
  rms(total) = 0.33606E+01    rms(broyden)= 0.33600E+01
  rms(prec ) = 0.34243E+01
  weight for this iteration     100.00

 eigenvalues of (default mixing * dielectric matrix)
  average eigenvalue GAMMA=   1.0087
  1.0087

 Free energy of the ion-electron system (eV)
  ---------------------------------------------------
  alpha Z        PSCENC =       767.15716082
  Ewald energy   TEWEN  =    385223.17853425
  -Hartree energ DENC   =   -438169.54177959
  -exchange      EXHF   =         0.00000000
  -V(xc)+E(xc)   XCENC  =     -1814.79036296
  PAW double counting   =     56241.34004723   -52341.21478051
  entropy T*S    EENTRO =         0.07483048
  eigenvalues    EBANDS =     -3009.93416287
  atomic energy  EATOM  =     52784.82232594
  Solvation  Ediel_sol  =         0.00000000
  ---------------------------------------------------
  free energy    TOTEN  =      -318.90818722 eV

  energy without entropy =     -318.98301770  energy(sigma->0) =     -318.93313071


--------------------------------------------------------------------------------------------------------




--------------------------------------- Iteration      1(   7)  ---------------------------------------


    POTLOK:  cpu time    0.4214: real time    0.2666
    SETDIJ:  cpu time    0.0345: real time    0.0230
    EDDIAG:  cpu time   14.4312: real time    7.2326
  RMM-DIIS:  cpu time   23.5417: real time   13.1577
    ORTHCH:  cpu time    4.5737: real time    2.3022
       DOS:  cpu time    0.0069: real time    0.0035
    CHARGE:  cpu time    2.0217: real time    1.7004
    MIXING:  cpu time    0.0061: real time    0.0030
    --------------------------------------------
      LOOP:  cpu time   45.0372: real time   24.6890

 eigenvalue-minimisations  : 18454
 total energy-change (2. order) :-0.1635628E+01  (-0.2512695E+01)
 number of electron     655.9999600 magnetization      59.9500647
 augmentation part      268.4184633 magnetization      44.0557503

 DIPCOR: dipole corrections for dipol
 direction  3 min pos     1,
 dipolmoment           0.000000      0.000000     -0.793290 electrons x Angstroem
 Tr[quadrupol]    -13472.640624

 energy correction for charged system         0.000000 eV
 dipol+quadrupol energy correction           -0.015737 eV
 added-field ion interaction          3.476818 eV  (added to PSCEN)


 Broyden mixing:
  rms(total) = 0.34531E+01    rms(broyden)= 0.34518E+01
  rms(prec ) = 0.39494E+01
  weight for this iteration     100.00

 eigenvalues of (default mixing * dielectric matrix)
  average eigenvalue GAMMA=   0.9398
  1.4200  0.4597

 Free energy of the ion-electron system (eV)
  ---------------------------------------------------
  alpha Z        PSCENC =       771.75347609
  Ewald energy   TEWEN  =    385223.17853425
  -Hartree energ DENC   =   -438570.68551396
  -exchange      EXHF   =         0.00000000
  -V(xc)+E(xc)   XCENC  =     -1808.86887512
  PAW double counting   =     59135.37665972   -55264.62699107
  entropy T*S    EENTRO =        -0.01682356
  eigenvalues    EBANDS =     -2591.47660736
  atomic energy  EATOM  =     52784.82232594
  Solvation  Ediel_sol  =         0.00000000
  ---------------------------------------------------
  free energy    TOTEN  =      -320.54381507 eV

  energy without entropy =     -320.52699152  energy(sigma->0) =     -320.53820722


--------------------------------------------------------------------------------------------------------




--------------------------------------- Iteration      1(   8)  ---------------------------------------


    POTLOK:  cpu time    0.4598: real time    0.2882
    SETDIJ:  cpu time    0.0324: real time    0.0220
    EDDIAG:  cpu time   14.3127: real time    7.1739
  RMM-DIIS:  cpu time   20.7879: real time   12.6026
    ORTHCH:  cpu time    4.5815: real time    2.3060
       DOS:  cpu time    0.0066: real time    0.0033
    CHARGE:  cpu time    2.5077: real time    2.1719
    MIXING:  cpu time    0.0058: real time    0.0029
    --------------------------------------------
      LOOP:  cpu time   42.6945: real time   24.5709

 eigenvalue-minimisations  : 18454
 total energy-change (2. order) :-0.2518846E+02  (-0.2270603E+01)
 number of electron     655.9999547 magnetization      58.3237584
 augmentation part      267.9627601 magnetization      45.4903593

 DIPCOR: dipole corrections for dipol
 direction  3 min pos     1,
 dipolmoment           0.000000      0.000000      1.491082 electrons x Angstroem
 Tr[quadrupol]    -13470.652088

 energy correction for charged system         0.000000 eV
 dipol+quadrupol energy correction           -0.055597 eV
 added-field ion interaction         -6.535092 eV  (added to PSCEN)


 Broyden mixing:
  rms(total) = 0.58314E+01    rms(broyden)= 0.58310E+01
  rms(prec ) = 0.74413E+01
  weight for this iteration     100.00

 eigenvalues of (default mixing * dielectric matrix)
  average eigenvalue GAMMA=   0.8359
  1.7838  0.5735  0.1506

 Free energy of the ion-electron system (eV)
  ---------------------------------------------------
  alpha Z        PSCENC =       761.70170551
  Ewald energy   TEWEN  =    385223.17853425
  -Hartree energ DENC   =   -438495.60281712
  -exchange      EXHF   =         0.00000000
  -V(xc)+E(xc)   XCENC  =     -1803.12512156
  PAW double counting   =     60407.15724581   -56553.46390395
  entropy T*S    EENTRO =        -0.04937324
  eigenvalues    EBANDS =     -2670.35087054
  atomic energy  EATOM  =     52784.82232594
  Solvation  Ediel_sol  =         0.00000000
  ---------------------------------------------------
  free energy    TOTEN  =      -345.73227492 eV

  energy without entropy =     -345.68290168  energy(sigma->0) =     -345.71581717


--------------------------------------------------------------------------------------------------------




--------------------------------------- Iteration      1(   9)  ---------------------------------------


    POTLOK:  cpu time    0.4399: real time    0.2655
    SETDIJ:  cpu time    0.0302: real time    0.0211
    EDDIAG:  cpu time   14.6727: real time    7.3536
  RMM-DIIS:  cpu time   20.8519: real time   12.5243
    ORTHCH:  cpu time    4.6206: real time    2.3259
       DOS:  cpu time    0.0073: real time    0.0036
    CHARGE:  cpu time    2.4658: real time    2.1131
    MIXING:  cpu time    0.0065: real time    0.0032
    --------------------------------------------
      LOOP:  cpu time   43.0949: real time   24.6104

 eigenvalue-minimisations  : 18459
 total energy-change (2. order) : 0.3668612E+02  (-0.1433742E+01)
 number of electron     655.9999610 magnetization      57.3189725
 augmentation part      270.8919645 magnetization      43.5135264

 DIPCOR: dipole corrections for dipol
 direction  3 min pos     1,
 dipolmoment           0.000000      0.000000     -0.648116 electrons x Angstroem
 Tr[quadrupol]    -13472.581571

 energy correction for charged system         0.000000 eV
 dipol+quadrupol energy correction           -0.010504 eV
 added-field ion interaction          2.840555 eV  (added to PSCEN)


 Broyden mixing:
  rms(total) = 0.41785E+01    rms(broyden)= 0.41782E+01
  rms(prec ) = 0.50872E+01
  weight for this iteration     100.00

 eigenvalues of (default mixing * dielectric matrix)
  average eigenvalue GAMMA=   0.7283
  1.9711  0.6230  0.2094  0.1096

 Free energy of the ion-electron system (eV)
  ---------------------------------------------------
  alpha Z        PSCENC =       771.12244500
  Ewald energy   TEWEN  =    385223.17853425
  -Hartree energ DENC   =   -438535.19289257
  -exchange      EXHF   =         0.00000000
  -V(xc)+E(xc)   XCENC  =     -1799.04777748
  PAW double counting   =     61308.11639425   -57468.46469015
  entropy T*S    EENTRO =        -0.03169878
  eigenvalues    EBANDS =     -2593.54879671
  atomic energy  EATOM  =     52784.82232594
  Solvation  Ediel_sol  =         0.00000000
  ---------------------------------------------------
  free energy    TOTEN  =      -309.04615626 eV

  energy without entropy =     -309.01445749  energy(sigma->0) =     -309.03559000


--------------------------------------------------------------------------------------------------------




--------------------------------------- Iteration      1(  10)  ---------------------------------------


    POTLOK:  cpu time    0.4373: real time    0.2636
    SETDIJ:  cpu time    0.0312: real time    0.0216
    EDDIAG:  cpu time   14.5889: real time    7.3118
  RMM-DIIS:  cpu time   20.6480: real time   12.6693
    ORTHCH:  cpu time    4.6468: real time    2.3388
       DOS:  cpu time    0.0058: real time    0.0029
    CHARGE:  cpu time    2.0514: real time    1.7176
    MIXING:  cpu time    0.0061: real time    0.0030
    --------------------------------------------
      LOOP:  cpu time   42.4155: real time   24.3286

 eigenvalue-minimisations  : 18474
 total energy-change (2. order) : 0.1576322E+02  (-0.4568771E+00)
 number of electron     655.9999591 magnetization      56.3278523
 augmentation part      271.7849048 magnetization      40.5950161

 DIPCOR: dipole corrections for dipol
 direction  3 min pos     1,
 dipolmoment           0.000000      0.000000      0.119483 electrons x Angstroem
 Tr[quadrupol]    -13473.786509

 energy correction for charged system         0.000000 eV
 dipol+quadrupol energy correction           -0.000357 eV
 added-field ion interaction         -0.523667 eV  (added to PSCEN)


 Broyden mixing:
  rms(total) = 0.20333E+01    rms(broyden)= 0.20329E+01
  rms(prec ) = 0.21797E+01
  weight for this iteration     100.00

 eigenvalues of (default mixing * dielectric matrix)
  average eigenvalue GAMMA=   0.6617
  2.0604  0.6329  0.2826  0.2321  0.1003

 Free energy of the ion-electron system (eV)
  ---------------------------------------------------
  alpha Z        PSCENC =       767.76837064
  Ewald energy   TEWEN  =    385223.17853425
  -Hartree energ DENC   =   -438586.35416252
  -exchange      EXHF   =         0.00000000
  -V(xc)+E(xc)   XCENC  =     -1798.40413450
  PAW double counting   =     61718.12953424   -57884.16729261
  entropy T*S    EENTRO =        -0.05705910
  eigenvalues    EBANDS =     -2518.19905389
  atomic energy  EATOM  =     52784.82232594
  Solvation  Ediel_sol  =         0.00000000
  ---------------------------------------------------
  free energy    TOTEN  =      -293.28293755 eV

  energy without entropy =     -293.22587846  energy(sigma->0) =     -293.26391786


--------------------------------------------------------------------------------------------------------




--------------------------------------- Iteration      1(  11)  ---------------------------------------


    POTLOK:  cpu time    0.4742: real time    0.2956
    SETDIJ:  cpu time    0.0316: real time    0.0217
    EDDIAG:  cpu time   14.8077: real time    7.4213
  RMM-DIIS:  cpu time   20.4188: real time   12.5696
    ORTHCH:  cpu time    4.6699: real time    2.3506
       DOS:  cpu time    0.0066: real time    0.0033
    CHARGE:  cpu time    2.1005: real time    1.7515
    MIXING:  cpu time    0.0062: real time    0.0031
    --------------------------------------------
      LOOP:  cpu time   42.5155: real time   24.4166

 eigenvalue-minimisations  : 18476
 total energy-change (2. order) : 0.2931896E+01  (-0.4286338E+00)
 number of electron     655.9999595 magnetization      54.5690304
 augmentation part      271.9198532 magnetization      38.7212420

 DIPCOR: dipole corrections for dipol
 direction  3 min pos     1,
 dipolmoment           0.000000      0.000000      0.067200 electrons x Angstroem
 Tr[quadrupol]    -13473.738637

 energy correction for charged system         0.000000 eV
 dipol+quadrupol energy correction           -0.000113 eV
 added-field ion interaction         -0.294522 eV  (added to PSCEN)


 Broyden mixing:
  rms(total) = 0.13956E+01    rms(broyden)= 0.13954E+01
  rms(prec ) = 0.14713E+01
  weight for this iteration     100.00

 eigenvalues of (default mixing * dielectric matrix)
  average eigenvalue GAMMA=   0.6359
  2.1060  0.6702  0.4776  0.2306  0.2306  0.1006

 Free energy of the ion-electron system (eV)
  ---------------------------------------------------
  alpha Z        PSCENC =       767.99775954
  Ewald energy   TEWEN  =    385223.17853425
  -Hartree energ DENC   =   -438589.75345333
  -exchange      EXHF   =         0.00000000
  -V(xc)+E(xc)   XCENC  =     -1797.85387459
  PAW double counting   =     61938.47382558   -58105.45916038
  entropy T*S    EENTRO =        -0.01490408
  eigenvalues    EBANDS =     -2511.74209472
  atomic energy  EATOM  =     52784.82232594
  Solvation  Ediel_sol  =         0.00000000
  ---------------------------------------------------
  free energy    TOTEN  =      -290.35104181 eV

  energy without entropy =     -290.33613772  energy(sigma->0) =     -290.34607378


--------------------------------------------------------------------------------------------------------




--------------------------------------- Iteration      1(  12)  ---------------------------------------


    POTLOK:  cpu time    0.4457: real time    0.2707
    SETDIJ:  cpu time    0.0316: real time    0.0214
    EDDIAG:  cpu time   14.9264: real time    7.4819
  RMM-DIIS:  cpu time   21.3277: real time   12.4177
    ORTHCH:  cpu time    4.5996: real time    2.3155
       DOS:  cpu time    0.0061: real time    0.0031
    CHARGE:  cpu time    1.9046: real time    1.5792
    MIXING:  cpu time    0.0067: real time    0.0034
    --------------------------------------------
      LOOP:  cpu time   43.2483: real time   24.0929

 eigenvalue-minimisations  : 18481
 total energy-change (2. order) :-0.2584233E+01  (-0.1453873E+00)
 number of electron     655.9999587 magnetization      53.5342220
 augmentation part      270.7300635 magnetization      37.4053557

 DIPCOR: dipole corrections for dipol
 direction  3 min pos     1,
 dipolmoment           0.000000      0.000000      0.197971 electrons x Angstroem
 Tr[quadrupol]    -13476.440268

 energy correction for charged system         0.000000 eV
 dipol+quadrupol energy correction           -0.000980 eV
 added-field ion interaction         -0.867663 eV  (added to PSCEN)


 Broyden mixing:
  rms(total) = 0.12930E+01    rms(broyden)= 0.12929E+01
  rms(prec ) = 0.14277E+01
  weight for this iteration     100.00

 eigenvalues of (default mixing * dielectric matrix)
  average eigenvalue GAMMA=   0.6049
  2.1116  0.6564  0.4699  0.4699  0.2131  0.2131  0.1001

 Free energy of the ion-electron system (eV)
  ---------------------------------------------------
  alpha Z        PSCENC =       767.42375142
  Ewald energy   TEWEN  =    385223.17853425
  -Hartree energ DENC   =   -438718.61552017
  -exchange      EXHF   =         0.00000000
  -V(xc)+E(xc)   XCENC  =     -1799.13365905
  PAW double counting   =     62231.84842668   -58398.88632134
  entropy T*S    EENTRO =        -0.03448344
  eigenvalues    EBANDS =     -2383.53832859
  atomic energy  EATOM  =     52784.82232594
  Solvation  Ediel_sol  =         0.00000000
  ---------------------------------------------------
  free energy    TOTEN  =      -292.93527432 eV

  energy without entropy =     -292.90079087  energy(sigma->0) =     -292.92377984


--------------------------------------------------------------------------------------------------------




--------------------------------------- Iteration      1(  13)  ---------------------------------------


    POTLOK:  cpu time    0.4194: real time    0.2542
    SETDIJ:  cpu time    0.0328: real time    0.0222
    EDDIAG:  cpu time   15.0919: real time    7.5638
  RMM-DIIS:  cpu time   21.8162: real time   12.5828
    ORTHCH:  cpu time    4.6051: real time    2.3178
       DOS:  cpu time    0.0073: real time    0.0037
    CHARGE:  cpu time    1.8615: real time    1.5315
    MIXING:  cpu time    0.0071: real time    0.0036
    --------------------------------------------
      LOOP:  cpu time   43.8413: real time   24.2796

 eigenvalue-minimisations  : 18468
 total energy-change (2. order) :-0.1324502E+01  (-0.1192216E+00)
 number of electron     655.9999595 magnetization      51.6846620
 augmentation part      270.8700746 magnetization      36.1555196

 DIPCOR: dipole corrections for dipol
 direction  3 min pos     1,
 dipolmoment           0.000000      0.000000      0.068779 electrons x Angstroem
 Tr[quadrupol]    -13476.425592

 energy correction for charged system         0.000000 eV
 dipol+quadrupol energy correction           -0.000118 eV
 added-field ion interaction         -0.301442 eV  (added to PSCEN)


 Broyden mixing:
  rms(total) = 0.10835E+01    rms(broyden)= 0.10834E+01
  rms(prec ) = 0.11583E+01
  weight for this iteration     100.00

 eigenvalues of (default mixing * dielectric matrix)
  average eigenvalue GAMMA=   0.6394
  2.1615  0.7341  0.7227  0.7227  0.2879  0.1002  0.1932  0.1932

 Free energy of the ion-electron system (eV)
  ---------------------------------------------------
  alpha Z        PSCENC =       767.99083446
  Ewald energy   TEWEN  =    385223.17853425
  -Hartree energ DENC   =   -438720.67684417
  -exchange      EXHF   =         0.00000000
  -V(xc)+E(xc)   XCENC  =     -1800.03537936
  PAW double counting   =     62298.42244897   -58465.07490481
  entropy T*S    EENTRO =        -0.00432680
  eigenvalues    EBANDS =     -2382.88246430
  atomic energy  EATOM  =     52784.82232594
  Solvation  Ediel_sol  =         0.00000000
  ---------------------------------------------------
  free energy    TOTEN  =      -294.25977583 eV

  energy without entropy =     -294.25544903  energy(sigma->0) =     -294.25833357


--------------------------------------------------------------------------------------------------------




--------------------------------------- Iteration      1(  14)  ---------------------------------------


    POTLOK:  cpu time    0.4666: real time    0.2923
    SETDIJ:  cpu time    0.0258: real time    0.0161
    EDDIAG:  cpu time   14.4277: real time    7.2314
  RMM-DIIS:  cpu time   22.6793: real time   12.9351
    ORTHCH:  cpu time    4.6082: real time    2.3215
       DOS:  cpu time    0.0065: real time    0.0033
    CHARGE:  cpu time    6.6151: real time    3.9553
    MIXING:  cpu time    0.0080: real time    0.0040
    --------------------------------------------
      LOOP:  cpu time   48.8372: real time   26.7589

 eigenvalue-minimisations  : 18481
 total energy-change (2. order) :-0.2481475E+01  (-0.7810982E-01)
 number of electron     655.9999591 magnetization      49.5046426
 augmentation part      270.7717684 magnetization      34.4214687

 DIPCOR: dipole corrections for dipol
 direction  3 min pos     1,
 dipolmoment           0.000000      0.000000      0.214263 electrons x Angstroem
 Tr[quadrupol]    -13477.742107

 energy correction for charged system         0.000000 eV
 dipol+quadrupol energy correction           -0.001148 eV
 added-field ion interaction         -0.939067 eV  (added to PSCEN)


 Broyden mixing:
  rms(total) = 0.10473E+01    rms(broyden)= 0.10472E+01
  rms(prec ) = 0.11475E+01
  weight for this iteration     100.00

 eigenvalues of (default mixing * dielectric matrix)
  average eigenvalue GAMMA=   0.6490
  2.1795  1.2559  0.7311  0.6198  0.3495  0.1001  0.2057  0.2057  0.1940

 Free energy of the ion-electron system (eV)
  ---------------------------------------------------
  alpha Z        PSCENC =       767.35217971
  Ewald energy   TEWEN  =    385223.17853425
  -Hartree energ DENC   =   -438774.62492907
  -exchange      EXHF   =         0.00000000
  -V(xc)+E(xc)   XCENC  =     -1801.42893909
  PAW double counting   =     62407.32415405   -58574.26868334
  entropy T*S    EENTRO =         0.01214774
  eigenvalues    EBANDS =     -2329.10804124
  atomic energy  EATOM  =     52784.82232594
  Solvation  Ediel_sol  =         0.00000000
  ---------------------------------------------------
  free energy    TOTEN  =      -296.74125107 eV

  energy without entropy =     -296.75339880  energy(sigma->0) =     -296.74530031


--------------------------------------------------------------------------------------------------------




--------------------------------------- Iteration      1(  15)  ---------------------------------------


    POTLOK:  cpu time    0.4174: real time    0.2499
    SETDIJ:  cpu time    0.0326: real time    0.0225
    EDDIAG:  cpu time   14.7320: real time    7.3834
  RMM-DIIS:  cpu time   23.5404: real time   13.3586
    ORTHCH:  cpu time    4.6879: real time    2.3598
       DOS:  cpu time    0.0076: real time    0.0038
    CHARGE:  cpu time    2.2825: real time    1.9562
    MIXING:  cpu time    0.0125: real time    0.0063
    --------------------------------------------
      LOOP:  cpu time   45.7131: real time   25.3405

 eigenvalue-minimisations  : 18471
 total energy-change (2. order) :-0.2544077E+01  (-0.7562445E-01)
 number of electron     655.9999591 magnetization      47.2948449
 augmentation part      270.5529745 magnetization      32.5466194

 DIPCOR: dipole corrections for dipol
 direction  3 min pos     1,
 dipolmoment           0.000000      0.000000      0.226171 electrons x Angstroem
 Tr[quadrupol]    -13479.293677

 energy correction for charged system         0.000000 eV
 dipol+quadrupol energy correction           -0.001279 eV
 added-field ion interaction         -0.991258 eV  (added to PSCEN)


 Broyden mixing:
  rms(total) = 0.84894E+00    rms(broyden)= 0.84886E+00
  rms(prec ) = 0.93307E+00
  weight for this iteration     100.00

 eigenvalues of (default mixing * dielectric matrix)
  average eigenvalue GAMMA=   0.6624
  2.1900  1.5287  0.8842  0.6236  0.3797  0.3390  0.1001  0.1994  0.1994  0.1797

 Free energy of the ion-electron system (eV)
  ---------------------------------------------------
  alpha Z        PSCENC =       767.29985760
  Ewald energy   TEWEN  =    385223.17853425
  -Hartree energ DENC   =   -438834.32679865
  -exchange      EXHF   =         0.00000000
  -V(xc)+E(xc)   XCENC  =     -1803.18068180
  PAW double counting   =     62471.52146578   -58638.04791249
  entropy T*S    EENTRO =         0.02383056
  eigenvalues    EBANDS =     -2270.57594881
  atomic energy  EATOM  =     52784.82232594
  Solvation  Ediel_sol  =         0.00000000
  ---------------------------------------------------
  free energy    TOTEN  =      -299.28532762 eV

  energy without entropy =     -299.30915819  energy(sigma->0) =     -299.29327115


--------------------------------------------------------------------------------------------------------




--------------------------------------- Iteration      1(  16)  ---------------------------------------


    POTLOK:  cpu time    0.4447: real time    0.2738
    SETDIJ:  cpu time    0.0325: real time    0.0222
    EDDIAG:  cpu time   14.8382: real time    7.4368
  RMM-DIIS:  cpu time   22.7335: real time   12.5554
    ORTHCH:  cpu time    4.5483: real time    2.2896
       DOS:  cpu time    0.0081: real time    0.0041
    CHARGE:  cpu time    2.0795: real time    1.7577
    MIXING:  cpu time    0.0107: real time    0.0054
    --------------------------------------------
      LOOP:  cpu time   44.6953: real time   24.3450

 eigenvalue-minimisations  : 18475
 total energy-change (2. order) :-0.3287665E+01  (-0.7935568E-01)
[...]
   -.871E+00 0.118E+01 0.957E+03   0.802E+00 -.124E+01 -.957E+03   0.687E-01 0.624E-01 0.817E-02   0.617E-02 -.581E-02 0.715E-02
   0.205E+01 0.287E+01 0.965E+03   -.205E+01 -.289E+01 -.965E+03   0.871E-02 0.272E-01 0.141E-01   0.303E-02 -.132E-01 0.857E-02
   0.292E+01 -.336E+01 0.961E+03   -.292E+01 0.339E+01 -.961E+03   -.185E-02 -.323E-01 -.842E-02   0.545E-02 0.245E-02 0.451E-02
   -.197E+00 -.490E+00 0.955E+03   0.101E+00 0.536E+00 -.956E+03   0.902E-01 -.558E-01 0.184E-01   0.442E-02 0.946E-02 0.383E-02
   0.114E+02 0.230E+02 -.797E+03   -.114E+02 -.228E+02 0.797E+03   0.913E-02 -.129E+00 0.550E-01   0.116E-01 -.429E-02 0.610E-02
   0.359E+01 0.968E+00 -.785E+03   -.349E+01 -.106E+01 0.784E+03   -.114E+00 0.926E-01 0.104E+01   0.109E-01 -.740E-02 0.124E-01
   0.265E+01 -.222E+02 -.780E+03   -.266E+01 0.223E+02 0.780E+03   -.260E-02 -.614E-01 0.309E+00   0.107E-01 0.464E-02 0.523E-02
   0.577E+01 0.319E+00 -.783E+03   -.579E+01 -.348E+00 0.783E+03   0.432E-02 0.298E-01 0.316E-01   0.116E-01 -.324E-03 -.165E-02
   -.257E+02 0.251E+02 -.770E+03   0.253E+02 -.248E+02 0.770E+03   0.380E+00 -.334E+00 -.168E+00   -.102E-01 -.117E-01 0.405E-02
   -.229E+02 -.498E+01 -.799E+03   0.229E+02 0.506E+01 0.799E+03   0.887E-02 -.858E-01 0.222E+00   -.133E-01 -.796E-02 0.166E-01
   -.243E+02 -.226E+02 -.810E+03   0.240E+02 0.222E+02 0.811E+03   0.361E+00 0.352E+00 -.335E+00   -.797E-02 0.123E-01 0.160E-01
   -.139E+02 0.335E+01 -.793E+03   0.139E+02 -.336E+01 0.793E+03   -.587E-02 0.128E-01 0.721E-01   -.233E-02 -.452E-02 0.454E-02
   -.669E+01 0.129E+02 -.797E+03   0.672E+01 -.128E+02 0.797E+03   -.958E-02 0.549E-02 0.832E-01   -.794E-02 -.122E-01 0.142E-01
   -.382E+01 -.177E+01 -.782E+03   0.386E+01 0.177E+01 0.782E+03   -.229E-01 -.273E-02 -.126E-01   -.100E-01 -.744E-02 0.208E-01
   -.350E+01 -.129E+02 -.806E+03   0.351E+01 0.129E+02 0.806E+03   0.499E-02 0.334E-02 0.879E-01   -.161E-01 0.176E-01 0.191E-01
   -.427E+01 0.167E+01 -.815E+03   0.427E+01 -.167E+01 0.815E+03   0.707E-02 -.500E-02 0.629E-01   -.119E-01 -.563E-03 0.134E-01
   0.201E+02 0.196E+02 -.817E+03   -.198E+02 -.194E+02 0.818E+03   -.289E+00 -.182E+00 -.238E+00   0.105E-01 -.791E-02 0.174E-01
   0.213E+02 0.238E+01 -.785E+03   -.214E+02 -.241E+01 0.785E+03   0.118E+00 0.334E-01 0.394E+00   0.128E-01 -.795E-02 0.154E-01
   0.263E+02 -.238E+02 -.809E+03   -.259E+02 0.235E+02 0.809E+03   -.405E+00 0.280E+00 -.419E+00   0.688E-02 0.109E-01 0.138E-01
   0.130E+02 -.399E+00 -.815E+03   -.129E+02 0.395E+00 0.815E+03   -.266E-01 0.227E-02 0.222E-01   0.323E-02 0.510E-02 0.490E-02
   0.328E+02 0.457E+02 -.256E+04   -.328E+02 -.456E+02 0.255E+04   0.740E-01 -.126E+00 0.328E+01   0.352E-02 -.148E-02 0.345E-02
   0.127E+03 0.152E+03 -.245E+04   -.127E+03 -.151E+03 0.245E+04   -.341E+00 -.467E+00 0.128E+01   0.821E-02 -.666E-02 0.145E-01
   0.127E+03 -.146E+03 -.242E+04   -.126E+03 0.146E+03 0.242E+04   -.538E+00 0.795E+00 0.225E+00   0.505E-02 -.360E-02 0.132E-01
   0.277E+02 -.473E+02 -.256E+04   -.278E+02 0.472E+02 0.256E+04   0.949E-01 0.609E-01 0.330E+01   0.505E-02 0.342E-02 0.395E-02
   -.143E+02 0.571E+02 -.254E+04   0.143E+02 -.573E+02 0.254E+04   -.373E-02 0.177E+00 0.315E+01   0.254E-02 -.512E-02 0.750E-04
   -.727E+02 0.117E+03 -.236E+04   0.735E+02 -.118E+03 0.236E+04   -.799E+00 0.109E+01 0.156E+01   -.318E-02 -.180E-02 0.106E-01
   -.114E+03 -.143E+03 -.242E+04   0.114E+03 0.143E+03 0.242E+04   -.748E-01 -.574E+00 0.182E+01   -.155E-02 -.290E-02 0.188E-02
   -.202E+02 -.407E+02 -.255E+04   0.202E+02 0.409E+02 0.255E+04   -.305E-01 -.259E+00 0.318E+01   0.110E-01 -.177E-02 -.469E-02
   -.291E+02 0.249E+02 -.256E+04   0.293E+02 -.251E+02 0.256E+04   -.140E+00 0.160E+00 0.326E+01   -.546E-02 -.114E-01 -.125E-03
   -.718E+02 0.215E+02 -.253E+04   0.720E+02 -.216E+02 0.253E+04   -.168E+00 0.791E-01 0.329E+01   -.104E-01 -.808E-02 0.112E-01
   -.564E+02 -.311E+02 -.255E+04   0.566E+02 0.312E+02 0.254E+04   -.113E+00 -.113E+00 0.336E+01   -.115E-01 0.824E-02 0.818E-02
   -.240E+02 -.170E+02 -.257E+04   0.241E+02 0.170E+02 0.257E+04   -.580E-01 -.813E-01 0.326E+01   -.295E-02 0.601E-02 -.541E-02
   0.128E+02 0.175E+02 -.258E+04   -.128E+02 -.176E+02 0.257E+04   0.311E-01 0.457E-01 0.330E+01   -.624E-02 -.103E-01 0.286E-02
   0.334E+02 0.249E+02 -.255E+04   -.337E+02 -.249E+02 0.255E+04   0.317E+00 0.305E-01 0.332E+01   -.153E-02 -.893E-02 0.151E-01
   0.415E+02 -.237E+02 -.255E+04   -.417E+02 0.238E+02 0.255E+04   0.235E+00 -.655E-01 0.330E+01   -.831E-02 0.548E-02 0.158E-01
   0.152E+02 -.165E+02 -.258E+04   -.152E+02 0.166E+02 0.257E+04   0.503E-01 -.953E-01 0.330E+01   -.105E-01 0.572E-02 0.687E-02
   -.407E+02 -.169E+03 -.160E+04   0.515E+02 0.193E+03 0.160E+04   -.108E+02 -.245E+02 -.505E+01   -.260E-03 -.850E-03 -.185E-02
   0.209E+03 0.157E+01 -.157E+04   -.236E+03 -.761E+01 0.157E+04   0.263E+02 0.604E+01 -.406E+01   0.557E-02 -.225E-02 0.962E-03
   -.171E+03 0.162E+03 -.200E+04   0.196E+03 -.190E+03 0.203E+04   -.254E+02 0.288E+02 -.231E+02   0.325E-02 -.227E-02 -.236E-02
 -----------------------------------------------------------------------------------------------
   0.114E+02 -.110E+02 0.393E+02   0.227E-12 -.853E-13 -.180E-10   -.113E+02 0.111E+02 -.397E+02   -.140E-01 -.813E-01 0.353E+00
 
 
 POSITION                                       TOTAL-FORCE (eV/Angst)
 -----------------------------------------------------------------------------------
      1.37275      1.37275     12.08797         0.003941      0.022618      0.011231
      1.37275      4.11824     12.08797         0.012713      0.001833     -0.013871
      1.37275      6.86373     12.08797        -0.013215     -0.005070      0.027821
      1.37275      9.60922     12.08797        -0.005385      0.013961      0.019499
      4.11824      1.37275     12.08797        -0.017831      0.018036      0.024176
      4.11824      4.11824     12.08797        -0.012732     -0.003190      0.012046
      4.11824      6.86373     12.08797        -0.017761     -0.027130     -0.000357
      4.11824      9.60922     12.08797         0.012161     -0.019581     -0.011663
      6.86373      1.37275     12.08797         0.019347      0.008849     -0.010240
      6.86373      4.11824     12.08797         0.015078      0.014119      0.021143
      6.86373      6.86373     12.08797        -0.011352     -0.015662      0.001300
      6.86373      9.60922     12.08797        -0.002643      0.022728     -0.104437
      9.60922      1.37275     12.08797         0.030057      0.021804      0.008719
      9.60922      4.11824     12.08797         0.005101      0.015340      0.025607
      9.60922      6.86373     12.08797        -0.001983      0.001930      0.012239
      9.60922      9.60922     12.08797         0.011964      0.017905     -0.009487
      0.00157      0.01893     14.04593        -0.001250      0.003010      0.001719
      0.01295      2.75954     14.05079        -0.000412     -0.001180      0.002593
      0.00304      5.49101     14.05064         0.001892     -0.002744     -0.003011
     10.97198      8.23956     14.04137         0.002086     -0.000741     -0.003879
      2.74468      0.00471     14.03816        -0.001135      0.001069     -0.000898
      2.74382      2.75165     14.05251        -0.003270     -0.003404      0.004612
      2.73736      5.48288     14.04974        -0.003090     -0.002552     -0.003587
      2.74407      8.22767     14.03673        -0.002537     -0.003478     -0.002097
      5.49464     10.97838     14.03743         0.001457     -0.000066     -0.003725
      5.48853      2.74662     14.03881         0.003405     -0.000731     -0.000110
      5.47820      5.49048     14.04331        -0.000253     -0.001326     -0.002568
      5.48723      8.23013     14.03773         0.001187     -0.001103     -0.001967
      8.24393      0.00383     14.03680         0.003476      0.000232     -0.000895
      8.24815      2.74831     14.03735         0.001763      0.000271      0.002105
      8.23911      5.50121     14.04254         0.000107     -0.002595     -0.002387
      8.23343      8.24201     14.03799        -0.000971     -0.000794     -0.002533
      1.38587      1.38918     16.01786         0.002594     -0.001336     -0.001046
      1.38218      4.12501     16.04560        -0.000802     -0.004716     -0.001460
      1.36178      6.87479     15.99288        -0.002114     -0.001964      0.003982
      1.36798      9.61799     15.96820         0.001164     -0.000504      0.002463
      4.12388      1.36754     15.97875        -0.003244      0.000322      0.000853
      4.10488      4.11459     16.02425        -0.000710     -0.009791      0.001733
      4.08548      6.83840     16.01381         0.000756      0.001351     -0.000720
      4.11967      9.59251     15.96866         0.000983     -0.001337      0.002136
      6.88306      1.37203     15.97040        -0.001450      0.001360      0.002083
      6.86136      4.12332     15.96670        -0.000923     -0.006064      0.003581
      6.84666      6.87033     15.97881         0.001888      0.000020      0.001471
      6.86589      9.61109     15.97809        -0.002080     -0.001632     -0.003789
      9.63989      1.40351     16.01125         0.001762      0.001750      0.000142
      9.61304      4.12851     15.99370        -0.000745     -0.005207      0.000769
      9.61409      6.86883     16.01030        -0.003990     -0.001358      0.000623
      9.60850      9.62793     15.98679         0.001047      0.000121     -0.002469
      0.01111      0.02186     17.95224         0.000006     -0.001730     -0.000475
     10.97493      2.74074     18.05884        -0.003195     -0.006782      0.001178
     10.88816      5.60262     18.00457        -0.002091     -0.001027      0.003072
     10.97343      8.29183     17.95085         0.000729     -0.003621     -0.001968
      2.75573     10.90639     17.94409        -0.000536     -0.004276     -0.000139
      2.89364      2.55575     18.00401        -0.001286     -0.002875      0.005080
      2.75557      5.58087     18.04513        -0.006017     -0.005035      0.001643
      2.73052      8.26216     17.95033        -0.000687     -0.002905     -0.002982
      5.50506     10.96796     17.92692        -0.001459     -0.002116     -0.002944
      5.55022      2.73604     17.93191         0.000836     -0.003191     -0.000800
      5.48866      5.48729     17.94702        -0.000235     -0.001431     -0.001011
      5.48272      8.23780     17.94038         0.003011      0.000533     -0.006977
      8.24021      0.01209     17.94229        -0.002719     -0.003756     -0.002906
      8.23530      2.76374     17.93620        -0.002862     -0.001149      0.000349
      8.18595      5.50315     17.93413        -0.005609      0.000682     -0.001158
      8.21829      8.25934     17.94169        -0.001288     -0.003758     -0.003212
      1.83415      4.44576     19.56181         0.008436      0.001606      0.003100
      0.59881      4.26226     19.28464        -0.010263      0.003298      0.001200
      2.59007      3.40647     19.89203         0.001182     -0.005837      0.001500
 -----------------------------------------------------------------------------------
    total drift:                                0.003309      0.003904      0.003326


--------------------------------------------------------------------------------------------------------



  FREE ENERGIE OF THE ION-ELECTRON SYSTEM (eV)
  ---------------------------------------------------
  free  energy   TOTEN  =      -358.17779691 eV

  energy  without entropy=     -358.01573390  energy(sigma->0) =     -358.12377591
 
 d Force = 0.2913423E-04[ 0.235E-04, 0.348E-04]  d Energy = 0.2957669E-04-0.442E-06
 d Force =-0.3226834E+00[-0.323E+00,-0.323E+00]  d Ewald  =-0.3226834E+00-0.797E-08


--------------------------------------------------------------------------------------------------------


    POTLOK:  cpu time    0.2847: real time    0.2755


--------------------------------------------------------------------------------------------------------


 Conjugate gradient step on ions:
 trial-energy change:   -0.000030  1 .order   -0.000029   -0.000035   -0.000024
  (g-gl).g = 0.992E-04      g.g   = 0.934E-04  gl.gl    = 0.332E-03
 g(Force)  = 0.934E-04   g(Stress)= 0.000E+00 ortho     =-0.808E-05
 gamma     =   0.29912
 trial     =   0.38213
 opt step  =   1.18049  (harmonic =   1.18049) maximal distance =0.00056302
 next E    =  -358.177821   (d E  =  -0.00005)


--------------------------------------------------------------------------------------------------------


  
 reached required accuracy - stopping structural energy minimisation
     LOOP+:  cpu time  388.2317: real time  207.7431
    4ORBIT:  cpu time    0.0000: real time    0.0000
 


 total charge     
 
# of ion       s       p       d       tot
------------------------------------------
    1        0.445   0.307   8.522   9.274
    2        0.445   0.308   8.522   9.275
    3        0.445   0.307   8.522   9.273
    4        0.444   0.306   8.522   9.272
    5        0.444   0.307   8.521   9.273
    6        0.445   0.307   8.522   9.275
    7        0.446   0.308   8.521   9.275
    8        0.445   0.308   8.521   9.274
    9        0.445   0.307   8.521   9.274
   10        0.444   0.306   8.522   9.273
   11        0.445   0.308   8.521   9.274
   12        0.438   0.310   8.530   9.278
   13        0.445   0.308   8.521   9.274
   14        0.445   0.307   8.522   9.274
   15        0.445   0.308   8.521   9.274
   16        0.447   0.307   8.522   9.275
   17        0.486   0.478   8.458   9.422
   18        0.485   0.477   8.458   9.421
   19        0.485   0.477   8.458   9.420
   20        0.486   0.478   8.458   9.422
   21        0.485   0.479   8.460   9.424
   22        0.485   0.477   8.457   9.420
   23        0.486   0.477   8.459   9.422
   24        0.485   0.480   8.459   9.424
   25        0.488   0.480   8.464   9.432
   26        0.485   0.478   8.460   9.423
   27        0.484   0.478   8.459   9.421
   28        0.488   0.478   8.466   9.432
   29        0.487   0.479   8.464   9.430
   30        0.485   0.479   8.459   9.423
   31        0.485   0.477   8.459   9.422
   32        0.486   0.477   8.469   9.432
   33        0.484   0.472   8.464   9.420
   34        0.460   0.434   8.484   9.378
   35        0.484   0.472   8.470   9.426
   36        0.488   0.481   8.463   9.432
   37        0.494   0.486   8.463   9.442
   38        0.482   0.463   8.467   9.412
   39        0.490   0.479   8.461   9.430
   40        0.487   0.482   8.460   9.429
   41        0.487   0.481   8.459   9.427
   42        0.488   0.481   8.463   9.432
   43        0.486   0.480   8.458   9.424
   44        0.491   0.484   8.456   9.430
   45        0.489   0.475   8.464   9.429
   46        0.481   0.467   8.472   9.420
   47        0.493   0.478   8.468   9.440
   48        0.486   0.479   8.458   9.423
   49        0.449   0.314   8.523   9.286
   50        0.449   0.394   8.501   9.345
   51        0.491   0.462   8.491   9.444
   52        0.450   0.316   8.526   9.292
   53        0.459   0.330   8.521   9.309
   54        0.461   0.395   8.477   9.333
   55        0.440   0.378   8.520   9.339
   56        0.457   0.323   8.523   9.303
   57        0.444   0.310   8.523   9.277
   58        0.452   0.323   8.522   9.297
   59        0.449   0.312   8.526   9.287
   60        0.444   0.308   8.522   9.273
   61        0.443   0.308   8.522   9.273
   62        0.451   0.314   8.526   9.292
   63        0.450   0.317   8.528   9.295
   64        0.444   0.307   8.522   9.273
   65        1.272   2.464   0.000   3.736
   66        1.302   2.396   0.000   3.699
   67        1.620   3.390   0.000   5.009
--------------------------------------------------
tot         34.082  33.827 543.426 611.334
 


 magnetization (x)
 
# of ion       s       p       d       tot
------------------------------------------
    1       -0.001  -0.003   0.190   0.186
    2        0.000  -0.003   0.194   0.191
    3       -0.001  -0.003   0.188   0.185
    4       -0.001  -0.003   0.181   0.177
    5       -0.001  -0.003   0.188   0.184
    6       -0.000  -0.003   0.189   0.185
    7       -0.001  -0.003   0.194   0.191
    8       -0.000  -0.003   0.197   0.194
    9       -0.000  -0.003   0.195   0.191
   10       -0.001  -0.003   0.181   0.177
   11       -0.001  -0.003   0.194   0.191
   12        0.001  -0.003   0.195   0.193
   13       -0.001  -0.003   0.191   0.188
   14       -0.001  -0.003   0.188   0.184
   15       -0.000  -0.003   0.187   0.184
   16       -0.000  -0.003   0.194   0.191
   17       -0.002  -0.005   0.270   0.264
   18       -0.001  -0.005   0.267   0.261
   19       -0.001  -0.005   0.263   0.257
   20       -0.002  -0.005   0.270   0.263
   21       -0.001  -0.005   0.271   0.264
   22       -0.001  -0.005   0.261   0.254
   23       -0.001  -0.005   0.280   0.273
   24       -0.002  -0.005   0.275   0.268
   25       -0.002  -0.005   0.263   0.256
   26       -0.001  -0.005   0.271   0.264
   27       -0.002  -0.005   0.272   0.265
   28       -0.001  -0.005   0.280   0.273
   29       -0.001  -0.005   0.276   0.269
   30       -0.002  -0.005   0.267   0.260
   31       -0.001  -0.005   0.266   0.259
   32       -0.002  -0.005   0.265   0.258
   33       -0.001  -0.005   0.233   0.227
   34       -0.001  -0.004   0.236   0.231
   35       -0.001  -0.004   0.248   0.243
   36       -0.002  -0.005   0.266   0.260
   37       -0.001  -0.005   0.212   0.205
   38       -0.001  -0.005   0.245   0.240
   39       -0.001  -0.005   0.225   0.219
   40       -0.001  -0.005   0.271   0.264
   41       -0.002  -0.005   0.274   0.267
   42       -0.002  -0.005   0.257   0.250
   43       -0.002  -0.005   0.269   0.263
   44       -0.001  -0.005   0.277   0.271
   45       -0.002  -0.005   0.229   0.222
   46       -0.001  -0.004   0.241   0.236
   47       -0.002  -0.005   0.202   0.195
   48       -0.002  -0.005   0.266   0.260
   49       -0.000  -0.003   0.160   0.157
   50       -0.002  -0.003   0.066   0.060
   51       -0.002  -0.004   0.047   0.041
   52       -0.001  -0.003   0.152   0.149
   53       -0.000  -0.003   0.158   0.155
   54       -0.001  -0.003   0.090   0.087
   55       -0.002  -0.003   0.076   0.072
   56       -0.000  -0.003   0.162   0.159
   57       -0.001  -0.003   0.162   0.159
   58       -0.001  -0.002   0.162   0.159
   59       -0.000  -0.003   0.166   0.163
   60       -0.001  -0.003   0.170   0.167
   61       -0.001  -0.003   0.174   0.171
   62       -0.000  -0.003   0.166   0.164
   63       -0.001  -0.003   0.164   0.161
   64       -0.000  -0.003   0.174   0.171
   65       -0.000  -0.001   0.000  -0.001
   66        0.000  -0.006   0.000  -0.006
   67       -0.000   0.000   0.000   0.000
--------------------------------------------------
tot         -0.065  -0.260  13.567  13.242
 

 total amount of memory used by VASP MPI-rank0   227192. kBytes
=======================================================================

   base      :      30000. kBytes
   nonlr-proj:      51074. kBytes
   fftplans  :       5987. kBytes
   grid      :      86439. kBytes
   one-center:       2083. kBytes
   wavefun   :      51609. kBytes
 
  
  
 General timing and accounting informations for this job:
 ========================================================
  
                  Total CPU time used (sec):     5236.692
                            User time (sec):     5047.572
                          System time (sec):      189.119
                         Elapsed time (sec):     2888.706
  
                   Maximum memory used (kb):      668288.
                   Average memory used (kb):           0.
  
                          Minor page faults:      2820126
                          Major page faults:            0
                 Voluntary context switches:        21757
