 vasp.5.4.4.18Apr17-6-g9f103f2a35 (build Jun 11 2020 13:42:08) complex          
  
 executed on             LinuxIFC date 2021.11.08  02:32:46
 running on   48 total cores
 each image running on   12 cores
 distrk:  each k-point on   12 cores,    1 groups
 distr:  one band on NCORES_PER_BAND=  12 cores,    1 groups


--------------------------------------------------------------------------------------------------------


 INCAR:
 POTCAR:    PAW_PBE Pd 04Jan2005                  
 POTCAR:    PAW_PBE N 08Apr2002                   
 POTCAR:    PAW_PBE O 08Apr2002                   
 POTCAR:    PAW_PBE H 15Jun2001                   

 ----------------------------------------------------------------------------- 
|                                                                             |
|           W    W    AA    RRRRR   N    N  II  N    N   GGGG   !!!           |
|           W    W   A  A   R    R  NN   N  II  NN   N  G    G  !!!           |
|           W    W  A    A  R    R  N N  N  II  N N  N  G       !!!           |
|           W WW W  AAAAAA  RRRRR   N  N N  II  N  N N  G  GGG   !            |
|           WW  WW  A    A  R   R   N   NN  II  N   NN  G    G                |
|           W    W  A    A  R    R  N    N  II  N    N   GGGG   !!!           |
|                                                                             |
|      For optimal performance we recommend to set                            |
|        NCORE= 4 - approx SQRT( number of cores)                             |
|      NCORE specifies how many cores store one orbital (NPAR=cpu/NCORE).     |
|      This setting can  greatly improve the performance of VASP for DFT.     |
|      The default,   NCORE=1            might be grossly inefficient         |
|      on modern multi-core architectures or massively parallel machines.     |
|      Do your own testing !!!!                                               |
|      Unfortunately you need to use the default for GW and RPA calculations. |
|      (for HF NCORE is supported but not extensively tested yet)             |
|                                                                             |
 ----------------------------------------------------------------------------- 

 POTCAR:    PAW_PBE Pd 04Jan2005                  
   VRHFIN =Pd : s1 d9                                                           
   LEXCH  = PE                                                                  
   EATOM  =   809.7530 eV,   59.5152 Ry                                         
                                                                                
   TITEL  = PAW_PBE Pd 04Jan2005                                                
   LULTRA =        F    use ultrasoft PP ?                                      
   IUNSCR =        1    unscreen: 0-lin 1-nonlin 2-no                           
   RPACOR =    2.000    partial core radius                                     
   POMASS =  106.420; ZVAL   =   10.000    mass and valenz                      
   RCORE  =    2.600    outmost cutoff radius                                   
   RWIGS  =    2.710; RWIGS  =    1.434    wigner-seitz radius (au A)           
   ENMAX  =  250.925; ENMIN  =  188.194 eV                                      
   ICORE  =        3    local potential                                         
   LCOR   =        T    correct aug charges                                     
   LPAW   =        T    paw PP                                                  
   EAUG   =  416.230                                                            
   DEXC   =    0.000                                                            
   RMAX   =    2.653    core radius for proj-oper                               
   RAUG   =    1.300    factor for augmentation sphere                          
   RDEP   =    2.734    radius for radial grids                                 
   RDEPT  =    2.103    core radius for aug-charge                              
                                                                                
   Atomic configuration                                                         
   12 entries                                                                   
     n  l   j            E        occ.                                          
     1  0  0.50    -24164.6631   2.0000                                         
     2  0  0.50     -3530.9218   2.0000                                         
     2  1  1.50     -3165.6822   6.0000                                         
     3  0  0.50      -639.4577   2.0000                                         
     3  1  1.50      -519.4532   6.0000                                         
     3  2  2.50      -328.9757  10.0000                                         
     4  0  0.50       -88.7014   2.0000                                         
     4  1  1.50       -54.4540   6.0000                                         
     4  2  2.50        -6.6878   9.0000                                         
     5  0  0.50        -4.3543   1.0000                                         
     5  1  0.50        -1.3606   0.0000                                         
     4  3  2.50        -1.3606   0.0000                                         
   Description                                                                  
     l       E           TYP  RCUT    TYP  RCUT                                 
     2     -6.6878251     23  2.400                                             
     2     -8.0484077     23  2.400                                             
     0     -4.3542939     23  2.400                                             
     0      4.3406793     23  2.400                                             
     1     -4.0817478     23  2.600                                             
     1     15.8380318     23  2.600                                             
     3     -4.0817478     23  2.400                                             
  local pseudopotential read in
  partial core-charges read in
  partial kinetic energy density read in
  atomic valenz-charges read in
  non local Contribution for L=           2  read in
    real space projection operators read in
  non local Contribution for L=           2  read in
    real space projection operators read in
  non local Contribution for L=           0  read in
    real space projection operators read in
  non local Contribution for L=           0  read in
    real space projection operators read in
  non local Contribution for L=           1  read in
    real space projection operators read in
  non local Contribution for L=           1  read in
    real space projection operators read in
    PAW grid and wavefunctions read in
 
   number of l-projection  operators is LMAX  =           6
   number of lm-projection operators is LMMAX =          18
 
 POTCAR:    PAW_PBE N 08Apr2002                   
   VRHFIN =N: s2p3                                                              
   LEXCH  = PE                                                                  
   EATOM  =   264.5486 eV,   19.4438 Ry                                         
                                                                                
   TITEL  = PAW_PBE N 08Apr2002                                                 
   LULTRA =        F    use ultrasoft PP ?                                      
   IUNSCR =        1    unscreen: 0-lin 1-nonlin 2-no                           
   RPACOR =    1.200    partial core radius                                     
   POMASS =   14.001; ZVAL   =    5.000    mass and valenz                      
   RCORE  =    1.500    outmost cutoff radius                                   
   RWIGS  =    1.400; RWIGS  =    0.741    wigner-seitz radius (au A)           
   ENMAX  =  400.000; ENMIN  =  300.000 eV                                      
   ICORE  =        2    local potential                                         
   LCOR   =        T    correct aug charges                                     
   LPAW   =        T    paw PP                                                  
   EAUG   =  627.112                                                            
   DEXC   =    0.000                                                            
   RMAX   =    1.529    core radius for proj-oper                               
   RAUG   =    1.300    factor for augmentation sphere                          
   RDEP   =    1.514    radius for radial grids                                 
   RDEPT  =    1.338    core radius for aug-charge                              
                                                                                
   Atomic configuration                                                         
    4 entries                                                                   
     n  l   j            E        occ.                                          
     1  0  0.50      -384.7179   2.0000                                         
     2  0  0.50       -18.5828   2.0000                                         
     2  1  0.50        -7.0898   3.0000                                         
     3  2  1.50        -6.8029   0.0000                                         
   Description                                                                  
     l       E           TYP  RCUT    TYP  RCUT                                 
     0    -18.5828119     23  1.200                                             
     0    -13.5018863     23  1.200                                             
     1     -7.0897853     23  1.500                                             
     1      9.5240782     23  1.500                                             
     2     -6.8029130      7  1.500                                             
  local pseudopotential read in
  partial core-charges read in
  partial kinetic energy density read in
  atomic valenz-charges read in
  non local Contribution for L=           0  read in
    real space projection operators read in
  non local Contribution for L=           0  read in
    real space projection operators read in
  non local Contribution for L=           1  read in
    real space projection operators read in
  non local Contribution for L=           1  read in
    real space projection operators read in
    PAW grid and wavefunctions read in
 
   number of l-projection  operators is LMAX  =           4
   number of lm-projection operators is LMMAX =           8
 
 POTCAR:    PAW_PBE O 08Apr2002                   
   VRHFIN =O: s2p4                                                              
   LEXCH  = PE                                                                  
   EATOM  =   432.3788 eV,   31.7789 Ry                                         
                                                                                
   TITEL  = PAW_PBE O 08Apr2002                                                 
   LULTRA =        F    use ultrasoft PP ?                                      
   IUNSCR =        1    unscreen: 0-lin 1-nonlin 2-no                           
   RPACOR =    1.200    partial core radius                                     
   POMASS =   16.000; ZVAL   =    6.000    mass and valenz                      
   RCORE  =    1.520    outmost cutoff radius                                   
   RWIGS  =    1.550; RWIGS  =    0.820    wigner-seitz radius (au A)           
   ENMAX  =  400.000; ENMIN  =  300.000 eV                                      
   ICORE  =        2    local potential                                         
   LCOR   =        T    correct aug charges                                     
   LPAW   =        T    paw PP                                                  
   EAUG   =  605.392                                                            
   DEXC   =    0.000                                                            
   RMAX   =    1.553    core radius for proj-oper                               
   RAUG   =    1.300    factor for augmentation sphere                          
   RDEP   =    1.550    radius for radial grids                                 
   RDEPT  =    1.329    core radius for aug-charge                              
                                                                                
   Atomic configuration                                                         
    4 entries                                                                   
     n  l   j            E        occ.                                          
     1  0  0.50      -514.6923   2.0000                                         
     2  0  0.50       -23.9615   2.0000                                         
     2  1  0.50        -9.0305   4.0000                                         
     3  2  1.50        -9.5241   0.0000                                         
   Description                                                                  
     l       E           TYP  RCUT    TYP  RCUT                                 
     0    -23.9615318     23  1.200                                             
     0     -9.5240782     23  1.200                                             
     1     -9.0304911     23  1.520                                             
     1      8.1634956     23  1.520                                             
     2     -9.5240782      7  1.500                                             
  local pseudopotential read in
  partial core-charges read in
  partial kinetic energy density read in
  kinetic energy density of atom read in
  atomic valenz-charges read in
  non local Contribution for L=           0  read in
    real space projection operators read in
  non local Contribution for L=           0  read in
    real space projection operators read in
  non local Contribution for L=           1  read in
    real space projection operators read in
  non local Contribution for L=           1  read in
    real space projection operators read in
    PAW grid and wavefunctions read in
 
   number of l-projection  operators is LMAX  =           4
   number of lm-projection operators is LMMAX =           8
 
 POTCAR:    PAW_PBE H 15Jun2001                   
   VRHFIN =H: ultrasoft test                                                    
   LEXCH  = PE                                                                  
   EATOM  =    12.4884 eV,    0.9179 Ry                                         
                                                                                
   TITEL  = PAW_PBE H 15Jun2001                                                 
   LULTRA =        F    use ultrasoft PP ?                                      
   IUNSCR =        0    unscreen: 0-lin 1-nonlin 2-no                           
   RPACOR =    0.000    partial core radius                                     
   POMASS =    1.000; ZVAL   =    1.000    mass and valenz                      
   RCORE  =    1.100    outmost cutoff radius                                   
   RWIGS  =    0.700; RWIGS  =    0.370    wigner-seitz radius (au A)           
   ENMAX  =  250.000; ENMIN  =  200.000 eV                                      
   RCLOC  =    0.701    cutoff for local pot                                    
   LCOR   =        T    correct aug charges                                     
   LPAW   =        T    paw PP                                                  
   EAUG   =  400.000                                                            
   RMAX   =    1.123    core radius for proj-oper                               
   RAUG   =    1.200    factor for augmentation sphere                          
   RDEP   =    1.112    radius for radial grids                                 
   RDEPT  =    0.926    core radius for aug-charge                              
                                                                                
   Atomic configuration                                                         
    2 entries                                                                   
     n  l   j            E        occ.                                          
     1  0  0.50        -6.4927   1.0000                                         
     2  1  0.50        -3.4015   0.0000                                         
   Description                                                                  
     l       E           TYP  RCUT    TYP  RCUT                                 
     0     -6.4927494     23  1.100                                             
     0      6.8029130     23  1.100                                             
     1     -4.0817478     23  1.100                                             
  local pseudopotential read in
  atomic valenz-charges read in
  non local Contribution for L=           0  read in
    real space projection operators read in
  non local Contribution for L=           0  read in
    real space projection operators read in
  non local Contribution for L=           1  read in
    real space projection operators read in
    PAW grid and wavefunctions read in
 
   number of l-projection  operators is LMAX  =           3
   number of lm-projection operators is LMMAX =           5
 
 Optimization of the real space projectors (new method)

 maximal supplied QI-value         = 14.36
 optimisation between [QCUT,QGAM] = [ 10.20, 20.39] = [ 29.12,116.47] Ry 
 Optimized for a Real-space Cutoff    1.55 Angstroem

   l    n(q)    QCUT    max X(q) W(low)/X(q) W(high)/X(q)  e(spline) 
   2      9    10.197    59.108    0.12E-03    0.40E-04    0.11E-06
   2      9    10.197    58.101    0.12E-03    0.39E-04    0.12E-06
   0      9    10.197   102.235    0.41E-04    0.86E-05    0.83E-07
   0      9    10.197    58.388    0.37E-04    0.79E-05    0.78E-07
   1      9    10.197    22.191    0.25E-03    0.13E-03    0.84E-07
   1      9    10.197    15.590    0.21E-03    0.11E-03    0.74E-07
 Optimization of the real space projectors (new method)

 maximal supplied QI-value         = 25.13
 optimisation between [QCUT,QGAM] = [ 10.05, 20.36] = [ 28.30,116.06] Ry 
 Optimized for a Real-space Cutoff    1.70 Angstroem

   l    n(q)    QCUT    max X(q) W(low)/X(q) W(high)/X(q)  e(spline) 
   0     10    10.053    79.467    0.61E-04    0.98E-04    0.61E-06
   0     10    10.053    66.151    0.60E-04    0.98E-04    0.61E-06
   1     10    10.053     8.350    0.17E-03    0.71E-03    0.45E-05
   1     10    10.053     5.531    0.18E-03    0.77E-03    0.49E-05
 Optimization of the real space projectors (new method)

 maximal supplied QI-value         = 24.76
 optimisation between [QCUT,QGAM] = [ 10.15, 20.30] = [ 28.85,115.39] Ry 
 Optimized for a Real-space Cutoff    1.51 Angstroem

   l    n(q)    QCUT    max X(q) W(low)/X(q) W(high)/X(q)  e(spline) 
   0      9    10.150    20.381    0.17E-03    0.18E-03    0.41E-06
   0      9    10.150    15.268    0.18E-03    0.20E-03    0.43E-06
   1      9    10.150     5.964    0.16E-03    0.20E-03    0.36E-06
   1      9    10.150     5.382    0.13E-03    0.16E-03    0.33E-06
 Optimization of the real space projectors (new method)

 maximal supplied QI-value         = 34.20
 optimisation between [QCUT,QGAM] = [  9.92, 20.18] = [ 27.55,114.04] Ry 
 Optimized for a Real-space Cutoff    1.34 Angstroem

   l    n(q)    QCUT    max X(q) W(low)/X(q) W(high)/X(q)  e(spline) 
   0      8     9.919    19.460    0.16E-03    0.20E-03    0.36E-06
   0      8     9.919    12.209    0.16E-03    0.20E-03    0.35E-06
   1      8     9.919     4.655    0.19E-03    0.46E-03    0.40E-06
  PAW_PBE Pd 04Jan2005                  :
 energy of atom  1       EATOM= -809.7530
 kinetic energy error for atom=    0.0091 (will be added to EATOM!!)
  PAW_PBE N 08Apr2002                   :
 energy of atom  2       EATOM= -264.5486
 kinetic energy error for atom=    0.0736 (will be added to EATOM!!)
  PAW_PBE O 08Apr2002                   :
 energy of atom  3       EATOM= -432.3788
 kinetic energy error for atom=    0.1156 (will be added to EATOM!!)
  PAW_PBE H 15Jun2001                   :
 energy of atom  4       EATOM=  -12.4884
 kinetic energy error for atom=    0.0098 (will be added to EATOM!!)
 
 
 POSCAR: Pd N O H                                
  positions in direct lattice
  velocities in cartesian coordinates
 exchange correlation table for  LEXCH =        8
   RHO(1)=    0.500       N(1)  =     2000
   RHO(2)=  100.500       N(2)  =     4000

 VTST: version 3.1, (03/28/14)

 CHAIN: initializing optimizer
 
 OPT: Using VASP QUASI-newton optimizer
 CHAIN: Read ICHAIN            0
 CHAIN: Running the NEB
 NEB:          SPRING     -5.000000
 NEB:          LCLIMB      T
 NEB:     LTANGENTOLD      F
 NEB:           LDNEB      F
 NEB:        LDNEBORG      F
 NEB:        LNEBCELL      F
 NEB:          EFIRST   -369.231398
 NEB:           ELAST   -369.108740
 
 POSCAR: Pd N O H                                
  positions in direct lattice
  No initial velocities read in
 
 POSCAR: Pd N O H                                
  positions in direct lattice
  No initial velocities read in
 


--------------------------------------------------------------------------------------------------------


 ion  position               nearest neighbor table
   1  0.125  0.125  0.403-  22 2.74   4 2.75   2 2.75   5 2.75  13 2.75  21 2.75  18 2.75  17 2.76

   2  0.125  0.375  0.403-   6 2.75   1 2.75  14 2.75   3 2.75  23 2.75  22 2.75  18 2.76  19 2.76

   3  0.125  0.625  0.403-  23 2.74   7 2.75   4 2.75  15 2.75   2 2.75  24 2.75  20 2.75  19 2.76

   4  0.125  0.875  0.403-   1 2.75   8 2.75   3 2.75  16 2.75  21 2.75  24 2.75  17 2.75  20 2.75

   5  0.375  0.125  0.403-   6 2.75   9 2.75   8 2.75   1 2.75  26 2.75  25 2.75  22 2.75  21 2.76

   6  0.375  0.375  0.403-  10 2.75   5 2.75   2 2.75   7 2.75  27 2.75  26 2.75  22 2.76  23 2.76

   7  0.375  0.625  0.403-   3 2.75  11 2.75   8 2.75   6 2.75  27 2.75  28 2.75  24 2.76  23 2.76

   8  0.375  0.875  0.403-   4 2.75   5 2.75  12 2.75   7 2.75  25 2.75  28 2.75  21 2.76  24 2.76

   9  0.625  0.125  0.403-  10 2.75   5 2.75  12 2.75  13 2.75  26 2.75  30 2.75  25 2.75  29 2.76

  10  0.625  0.375  0.403-   9 2.75   6 2.75  14 2.75  11 2.75  31 2.75  27 2.75  26 2.76  30 2.76

  11  0.625  0.625  0.403-   7 2.75  12 2.75  15 2.75  10 2.75  28 2.75  27 2.75  32 2.75  31 2.75

  12  0.625  0.875  0.403-   9 2.75   8 2.75  16 2.75  11 2.75  25 2.75  29 2.75  28 2.75  32 2.76

  13  0.875  0.125  0.403-  16 2.75  14 2.75   9 2.75   1 2.75  18 2.75  30 2.75  17 2.76  29 2.76

  14  0.875  0.375  0.403-  13 2.75  10 2.75   2 2.75  15 2.75  19 2.75  18 2.75  31 2.76  30 2.76

  15  0.875  0.625  0.403-  16 2.75   3 2.75  11 2.75  14 2.75  20 2.75  19 2.75  32 2.75  31 2.76

  16  0.875  0.875  0.403-  13 2.75  15 2.75  12 2.75   4 2.75  29 2.75  17 2.75  20 2.75  32 2.76

  17  1.000  1.000  0.468-  21 2.74  18 2.74  29 2.74  20 2.75  36 2.75  45 2.75  16 2.75   4 2.75
                            13 2.76   1 2.76  48 2.76  33 2.78
  18  0.999  0.250  0.468-  22 2.74  30 2.74  17 2.74  34 2.75  13 2.75  19 2.75  45 2.75  14 2.75
                             1 2.75   2 2.76  46 2.76  33 2.77
  19  0.999  0.500  0.468-  31 2.74  23 2.74  20 2.74  34 2.75  18 2.75  47 2.75  15 2.75  14 2.75
                            35 2.76  46 2.76   3 2.76   2 2.76
  20  1.000  0.750  0.468-  24 2.74  19 2.74  32 2.74  17 2.75  15 2.75  36 2.75  48 2.75   3 2.75
                            16 2.75   4 2.75  47 2.77  35 2.78
  21  0.249  1.000  0.468-  37 2.73  17 2.74  22 2.74  24 2.75   4 2.75  40 2.75  36 2.75   1 2.75
                            25 2.75   8 2.76   5 2.76  33 2.77
  22  0.249  0.249  0.468-  38 2.71  18 2.74   1 2.74  21 2.74   2 2.75  37 2.75  23 2.75  33 2.75
                             5 2.75  26 2.76   6 2.76  34 2.77
  23  0.249  0.500  0.468-  38 2.71  19 2.74  24 2.74   3 2.74  39 2.75   2 2.75  35 2.75  22 2.75
                            27 2.76   7 2.76   6 2.76  34 2.77
  24  0.249  0.750  0.468-  39 2.74  20 2.74  23 2.74  21 2.75   3 2.75  36 2.75  40 2.75   4 2.75
                            28 2.76   7 2.76   8 2.76  35 2.78
  25  0.500  1.000  0.468-  26 2.74  29 2.74  28 2.74  37 2.75  12 2.75   8 2.75  40 2.75   9 2.75
                             5 2.75  41 2.75  21 2.75  44 2.76
  26  0.500  0.249  0.468-  38 2.73  25 2.74  30 2.75   5 2.75  42 2.75   9 2.75  27 2.75  41 2.75
                             6 2.75  37 2.76  10 2.76  22 2.76
  27  0.500  0.500  0.468-  38 2.73  31 2.74  28 2.74   7 2.75  43 2.75   6 2.75  26 2.75  11 2.75
                            10 2.75  39 2.75  42 2.75  23 2.76
  28  0.500  0.750  0.468-  27 2.74  32 2.74  25 2.74  44 2.75  39 2.75  40 2.75  11 2.75   7 2.75
                            12 2.75   8 2.75  24 2.76  43 2.77
  29  0.750  0.999  0.468-  17 2.74  25 2.74  30 2.74  32 2.75  45 2.75  48 2.75  16 2.75  12 2.75
                            44 2.76  13 2.76   9 2.76  41 2.77
  30  0.750  0.249  0.468-  18 2.74  42 2.74  29 2.74  26 2.75  45 2.75  31 2.75  46 2.75   9 2.75
                            13 2.75  10 2.76  14 2.76  41 2.76
  31  0.749  0.500  0.468-  32 2.74  19 2.74  27 2.74  42 2.75  47 2.75  30 2.75  10 2.75  46 2.75
                            11 2.75  14 2.76  15 2.76  43 2.76
  32  0.750  0.749  0.468-  31 2.74  28 2.74  20 2.74  48 2.75  29 2.75  44 2.75  47 2.75  11 2.75
                            15 2.75  12 2.76  16 2.76  43 2.78
  33  0.126  0.126  0.534-  34 2.73  37 2.73  53 2.75  50 2.75  22 2.75  45 2.75  49 2.76  36 2.76
                            18 2.77  21 2.77  54 2.78  17 2.78
  34  0.123  0.374  0.533-  33 2.73  35 2.73  46 2.74  18 2.75  38 2.75  19 2.75  50 2.76  23 2.77
                            22 2.77  51 2.77  55 2.80  54 2.81
  35  0.125  0.623  0.534-  34 2.73  39 2.73  56 2.75  52 2.75  23 2.75  19 2.76  47 2.76  51 2.76
                            36 2.76  24 2.78  55 2.78  20 2.78
  36  0.124  0.875  0.533-  48 2.74  40 2.75  24 2.75  17 2.75  20 2.75  21 2.75  56 2.75  49 2.75
                            53 2.76  52 2.76  33 2.76  35 2.76
  37  0.374  0.124  0.533-  33 2.73  21 2.73  40 2.73  41 2.74  25 2.75  22 2.75  38 2.75  26 2.76
                            53 2.76  57 2.77  58 2.77  54 2.82
  38  0.373  0.374  0.531-  22 2.71  23 2.71  26 2.73  27 2.73  34 2.75  37 2.75  39 2.76  42 2.77
                            59 2.79  58 2.81  54 2.83  55 2.83
  39  0.374  0.625  0.533-  35 2.73  24 2.74  40 2.74  43 2.74  23 2.75  28 2.75  27 2.75  56 2.75
                            38 2.76  59 2.76  60 2.77  55 2.82
  40  0.375  0.875  0.533-  37 2.73  39 2.74  44 2.75  36 2.75  24 2.75  21 2.75  28 2.75  25 2.75
                            57 2.76  60 2.76  56 2.76  53 2.76
  41  0.623  0.125  0.533-  62 2.74  42 2.74  37 2.74  57 2.75  26 2.75  25 2.75  44 2.76  58 2.76
                            45 2.76  30 2.76  61 2.76  29 2.77
  42  0.625  0.374  0.533-  46 2.73  43 2.73  41 2.74  30 2.74  31 2.75  26 2.75  27 2.75  62 2.76
                            38 2.77  63 2.77  58 2.79  59 2.79
  43  0.623  0.623  0.534-  42 2.73  39 2.74  64 2.75  47 2.75  27 2.75  59 2.75  60 2.75  44 2.76
                            31 2.76  28 2.77  32 2.78  63 2.78
  44  0.625  0.874  0.533-  48 2.74  40 2.75  28 2.75  32 2.75  61 2.75  41 2.76  29 2.76  43 2.76
                            25 2.76  60 2.76  57 2.76  64 2.76
  45  0.875  0.124  0.533-  48 2.75  29 2.75  17 2.75  46 2.75  30 2.75  62 2.75  49 2.75  18 2.75
                            33 2.75  50 2.76  41 2.76  61 2.76
  46  0.874  0.375  0.533-  42 2.73  34 2.74  47 2.74  51 2.74  45 2.75  30 2.75  31 2.75  62 2.76
                            50 2.76  19 2.76  18 2.76  63 2.81
  47  0.874  0.624  0.533-  46 2.74  64 2.74  51 2.74  48 2.75  31 2.75  43 2.75  32 2.75  19 2.75
                            52 2.76  35 2.76  20 2.77  63 2.85
  48  0.875  0.874  0.533-  36 2.74  44 2.74  32 2.75  47 2.75  45 2.75  29 2.75  20 2.75  52 2.75
                            61 2.75  49 2.75  17 2.76  64 2.77
  49  0.999  0.999  0.598-  52 2.74  61 2.74  50 2.75  53 2.75  45 2.75  36 2.75  48 2.75  33 2.76

  50  0.998  0.249  0.599-  62 2.74  51 2.75  49 2.75  33 2.75  45 2.76  46 2.76  34 2.76  54 2.76

  51  0.996  0.499  0.599-  47 2.74  46 2.74  52 2.75  50 2.75  35 2.76  63 2.77  34 2.77  55 2.78

  52  0.999  0.749  0.598-  49 2.74  56 2.75  64 2.75  51 2.75  35 2.75  48 2.75  47 2.76  36 2.76

  53  0.250  0.999  0.598-  56 2.74  57 2.74  33 2.75  49 2.75  36 2.76  37 2.76  54 2.76  40 2.76

  54  0.250  0.250  0.601-  65 2.18  58 2.72  55 2.72  53 2.76  50 2.76  33 2.78  34 2.81  37 2.82
                            38 2.83
  55  0.249  0.498  0.600-  65 2.20  59 2.72  54 2.72  56 2.76  51 2.78  35 2.78  34 2.80  39 2.82
                            38 2.83
  56  0.249  0.750  0.598-  60 2.74  53 2.74  35 2.75  52 2.75  36 2.75  39 2.75  55 2.76  40 2.76

  57  0.499  0.999  0.598-  60 2.73  53 2.74  58 2.75  61 2.75  41 2.75  40 2.76  44 2.76  37 2.77

  58  0.497  0.249  0.599-  65 2.16  54 2.72  57 2.75  59 2.75  41 2.76  62 2.76  37 2.77  42 2.79
                            38 2.81
  59  0.496  0.499  0.599-  65 2.16  55 2.72  63 2.73  58 2.75  43 2.75  60 2.75  39 2.76  42 2.79
                            38 2.79
  60  0.499  0.750  0.598-  57 2.73  56 2.74  64 2.75  43 2.75  59 2.75  44 2.76  40 2.76  39 2.77

  61  0.750  0.998  0.598-  62 2.74  49 2.74  57 2.75  44 2.75  48 2.75  64 2.75  45 2.76  41 2.76

  62  0.749  0.248  0.598-  63 2.73  41 2.74  61 2.74  50 2.74  45 2.75  46 2.76  58 2.76  42 2.76

  63  0.744  0.496  0.601-  70 1.82  59 2.73  62 2.73  64 2.76  51 2.77  42 2.77  43 2.78  46 2.81
                            47 2.85
  64  0.749  0.748  0.598-  47 2.74  52 2.75  43 2.75  60 2.75  61 2.75  63 2.76  44 2.76  48 2.77

  65  0.378  0.374  0.633-  66 1.26  59 2.16  58 2.16  54 2.18  55 2.20
  66  0.388  0.374  0.675-  65 1.26
  67  0.634  0.395  0.687-  68 0.99  69 1.02  70 1.25
  68  0.662  0.310  0.683-  67 0.99
  69  0.541  0.390  0.686-  67 1.02
  70  0.663  0.438  0.650-  67 1.25  63 1.82
 
  LATTYP: Found a simple tetragonal cell.
 ALAT       =    10.9820000000
 C/A-ratio  =     2.7317428519
  
  Lattice vectors:
  
 A1 = (  10.9820000000,   0.0000000000,   0.0000000000)
 A2 = (   0.0000000000,  10.9820000000,   0.0000000000)
 A3 = (   0.0000000000,   0.0000000000,  30.0000000000)


Analysis of symmetry for initial positions (statically):
=====================================================================
 Subroutine PRICEL returns:
 Original cell was already a primitive cell.
 

 Routine SETGRP: Setting up the symmetry group for a 
 simple tetragonal supercell.


 Subroutine GETGRP returns: Found  1 space group operations
 (whereof  1 operations were pure point group operations)
 out of a pool of 16 trial point group operations.


The static configuration has the point symmetry C_1 .


Analysis of symmetry for dynamics (positions and initial velocities):
=====================================================================
 Subroutine PRICEL returns:
 Original cell was already a primitive cell.
 

 Routine SETGRP: Setting up the symmetry group for a 
 simple tetragonal supercell.


 Subroutine GETGRP returns: Found  1 space group operations
 (whereof  1 operations were pure point group operations)
 out of a pool of 16 trial point group operations.


The dynamic configuration has the point symmetry C_1 .


Analysis of constrained symmetry for selective dynamics:
=====================================================================
 Subroutine PRICEL returns:
 Original cell was already a primitive cell.
 

 Routine SETGRP: Setting up the symmetry group for a 
 simple tetragonal supercell.


 Subroutine GETGRP returns: Found  1 space group operations
 (whereof  1 operations were pure point group operations)
 out of a pool of 16 trial point group operations.


The constrained configuration has the point symmetry C_1 .


Analysis of structural, dynamic, and magnetic symmetry:
=====================================================================
 Subroutine PRICEL returns:
 Original cell was already a primitive cell.
 

 Routine SETGRP: Setting up the symmetry group for a 
 simple tetragonal supercell.


 Subroutine GETGRP returns: Found  1 space group operations
 (whereof  1 operations were pure point group operations)
 out of a pool of 16 trial point group operations.


The magnetic configuration has the point symmetry C_1 .


 Subroutine INISYM returns: Found  1 space group operations
 (whereof  1 operations are pure point group operations),
 and found     1 'primitive' translations

 
 
 KPOINTS: K-Point Grid                            

Automatic generation of k-mesh.
Space group operators:
 irot       det(A)        alpha          n_x          n_y          n_z        tau_x        tau_y        tau_z
    1     1.000000     0.000001     1.000000     0.000000     0.000000     0.000000     0.000000     0.000000
 
 Subroutine IBZKPT returns following result:
 ===========================================
 
 Found      8 irreducible k-points:
 
 Following reciprocal coordinates:
            Coordinates               Weight
  0.125000  0.125000  0.000000      2.000000
  0.375000  0.125000  0.000000      2.000000
 -0.375000  0.125000  0.000000      2.000000
 -0.125000  0.125000  0.000000      2.000000
  0.125000  0.375000  0.000000      2.000000
  0.375000  0.375000  0.000000      2.000000
 -0.375000  0.375000  0.000000      2.000000
 -0.125000  0.375000  0.000000      2.000000
 
 Following cartesian coordinates:
            Coordinates               Weight
  0.011382  0.011382  0.000000      2.000000
  0.034147  0.011382  0.000000      2.000000
 -0.034147  0.011382  0.000000      2.000000
 -0.011382  0.011382  0.000000      2.000000
  0.011382  0.034147  0.000000      2.000000
  0.034147  0.034147  0.000000      2.000000
 -0.034147  0.034147  0.000000      2.000000
 -0.011382  0.034147  0.000000      2.000000
 


--------------------------------------------------------------------------------------------------------




 Dimension of arrays:
   k-points           NKPTS =      8   k-points in BZ     NKDIM =      8   number of bands    NBANDS=    431
   number of dos      NEDOS =   1200   number of ions     NIONS =     70
   non local maximal  LDIM  =      6   non local SUM 2l+1 LMDIM =     18
   total plane-waves  NPLWV = ******
   max r-space proj   IRMAX =   5807   max aug-charges    IRDMAX=  13820
   dimension x,y,z NGX =    72 NGY =   72 NGZ =  196
   dimension x,y,z NGXF=   144 NGYF=  144 NGZF=  392
   support grid    NGXF=   144 NGYF=  144 NGZF=  392
   ions per type =              64   1   2   3
   NGX,Y,Z   is equivalent  to a cutoff of  10.90, 10.90, 10.86 a.u.
   NGXF,Y,Z  is equivalent  to a cutoff of  21.80, 21.80, 21.72 a.u.

 SYSTEM =  Pd_111_surface                          
 POSCAR =  Pd N O H                                

 Startparameter for this run:
   NWRITE =      2    write-flag & timer
   PREC   = accura    normal or accurate (medium, high low for compatibility)
   ISTART =      0    job   : 0-new  1-cont  2-samecut
   ICHARG =      2    charge: 1-file 2-atom 10-const
   ISPIN  =      2    spin polarized calculation?
   LNONCOLLINEAR =      F non collinear calculations
   LSORBIT =      F    spin-orbit coupling
   INIWAV =      1    electr: 0-lowe 1-rand  2-diag
   LASPH  =      F    aspherical Exc in radial PAW
   METAGGA=      F    non-selfconsistent MetaGGA calc.

 Electronic Relaxation 1
   ENCUT  =  400.0 eV  29.40 Ry    5.42 a.u.  17.91 17.91 48.92*2*pi/ulx,y,z
   ENINI  =  400.0     initial cutoff
   ENAUG  =  627.1 eV  augmentation charge cutoff
   NELM   =    100;   NELMIN=  2; NELMDL= -5     # of ELM steps 
   EDIFF  = 0.1E-04   stopping-criterion for ELM
   LREAL  =      T    real-space projection
   NLSPLINE    = F    spline interpolate recip. space projectors
   LCOMPAT=      F    compatible to vasp.4.4
   GGA_COMPAT  = T    GGA compatible to vasp.4.4-vasp.4.6
   LMAXPAW     = -100 max onsite density
   LMAXMIX     =    2 max onsite mixed and CHGCAR
   VOSKOWN=      0    Vosko Wilk Nusair interpolation
   ROPT   =   -0.00025  -0.00025  -0.00025  -0.00025
 Ionic relaxation
   EDIFFG = -.5E-01   stopping-criterion for IOM
   NSW    =    300    number of steps for IOM
   NBLOCK =      1;   KBLOCK =    300    inner block; outer block 
   IBRION =      1    ionic relax: 0-MD 1-quasi-New 2-CG
   NFREE  =      0    steps in history (QN), initial steepest desc. (CG)
   ISIF   =      2    stress and relaxation
   IWAVPR =     11    prediction:  0-non 1-charg 2-wave 3-comb
   ISYM   =      2    0-nonsym 1-usesym 2-fastsym
   LCORR  =      T    Harris-Foulkes like correction to forces

   POTIM  = 0.3000    time-step for ionic-motion
   TEIN   =    0.0    initial temperature
   TEBEG  =    0.0;   TEEND  =   0.0 temperature during run
   SMASS  =  -3.00    Nose mass-parameter (am)
   estimated Nose-frequenzy (Omega)   =  0.10E-29 period in steps =****** mass=  -0.276E-26a.u.
   SCALEE = 1.0000    scale energy and forces
   NPACO  =    256;   APACO  = 16.0  distance and # of slots for P.C.
   PSTRESS=    0.0 pullay stress

  Mass of Ions in am
   POMASS = 106.42 14.00 16.00  1.00
  Ionic Valenz
   ZVAL   =  10.00  5.00  6.00  1.00
  Atomic Wigner-Seitz radii
   RWIGS  =  -1.00 -1.00 -1.00 -1.00
  virtual crystal weights 
   VCA    =   1.00  1.00  1.00  1.00
   NELECT =     660.0000    total number of electrons
   NUPDOWN=      -1.0000    fix difference up-down

 DOS related values:
   EMIN   =  10.00;   EMAX   =-10.00  energy-range for DOS
   EFERMI =   0.00
   ISMEAR =     1;   SIGMA  =   0.20  broadening in eV -4-tet -1-fermi 0-gaus

 Electronic relaxation 2 (details)
   IALGO  =     68    algorithm
   LDIAG  =      T    sub-space diagonalisation (order eigenvalues)
   LSUBROT=      F    optimize rotation matrix (better conditioning)
   TURBO    =      0    0=normal 1=particle mesh
   IRESTART =      0    0=no restart 2=restart with 2 vectors
   NREBOOT  =      0    no. of reboots
   NMIN     =      0    reboot dimension
   EREF     =   0.00    reference energy to select bands
   IMIX   =      4    mixing-type and parameters
     AMIX     =   0.40;   BMIX     =  1.00
     AMIX_MAG =   1.60;   BMIX_MAG =  1.00
     AMIN     =   0.10
     WC   =   100.;   INIMIX=   1;  MIXPRE=   1;  MAXMIX= -45

 Intra band minimization:
   WEIMIN = 0.0010     energy-eigenvalue tresh-hold
   EBREAK =  0.58E-08  absolut break condition
   DEPER  =   0.30     relativ break condition  

   TIME   =   0.40     timestep for ELM

  volume/ion in A,a.u.               =      51.69       348.80
  Fermi-wavevector in a.u.,A,eV,Ry     =   0.928456  1.754528 11.728643  0.862031
  Thomas-Fermi vector in A             =   2.054635
 
 Write flags
   LWAVE        =      F    write WAVECAR
   LDOWNSAMPLE  =      F    k-point downsampling of WAVECAR
   LCHARG       =      F    write CHGCAR
   LVTOT        =      F    write LOCPOT, total local potential
   LVHAR        =      F    write LOCPOT, Hartree potential only
   LELF         =      F    write electronic localiz. function (ELF)
   LORBIT       =     11    0 simple, 1 ext, 2 COOP (PROOUT), +10 PAW based schemes


 Dipole corrections
   LMONO  =      F    monopole corrections only (constant potential shift)
   LDIPOL =      T    correct potential (dipole corrections)
   IDIPOL =      3    1-x, 2-y, 3-z, 4-all directions 
   EPSILON=  1.0000000 bulk dielectric constant

 Exchange correlation treatment:
   GGA     =    --    GGA type
   LEXCH   =     8    internal setting for exchange type
   VOSKOWN=      0    Vosko Wilk Nusair interpolation
   LHFCALC =     F    Hartree Fock is set to
   LHFONE  =     F    Hartree Fock one center treatment
   AEXX    =    0.0000 exact exchange contribution

 Linear response parameters
   LEPSILON=     F    determine dielectric tensor
   LRPA    =     F    only Hartree local field effects (RPA)
   LNABLA  =     F    use nabla operator in PAW spheres
   LVEL    =     F    velocity operator in full k-point grid
   LINTERFAST=   F  fast interpolation
   KINTER  =     0    interpolate to denser k-point grid
   CSHIFT  =0.1000    complex shift for real part using Kramers Kronig
   OMEGAMAX=  -1.0    maximum frequency
   DEG_THRESHOLD= 0.2000000E-02 threshold for treating states as degnerate
   RTIME   =   -0.100 relaxation time in fs
  (WPLASMAI=    0.000 imaginary part of plasma frequency in eV, 0.658/RTIME)
   DFIELD  = 0.0000000 0.0000000 0.0000000 field for delta impulse in time
 
 Orbital magnetization related:
   ORBITALMAG=     F  switch on orbital magnetization
   LCHIMAG   =     F  perturbation theory with respect to B field
   DQ        =  0.001000  dq finite difference perturbation B field
   LLRAUG    =     F  two centre corrections for induced B field



--------------------------------------------------------------------------------------------------------


 quasi-Newton-method for relaxation of ions
   using selective dynamics as specified on POSCAR
 charge density and potential will be updated during run
 spin polarized calculation
 RMM-DIIS sequential band-by-band and
  variant of blocked Davidson during initial phase
 perform sub-space diagonalisation
    before iterative eigenvector-optimisation
 modified Broyden-mixing scheme, WC =      100.0
 initial mixing is a Kerker type mixing with AMIX =  0.4000 and BMIX =      1.0000
 Hartree-type preconditioning will be used
 using additional bands          101
 real space projection scheme for non local part
 use partial core corrections
 calculate Harris-corrections to forces 
   (improved forces if not selfconsistent)
 use gradient corrections 
 use of overlap-Matrix (Vanderbilt PP)
 Methfessel and Paxton  Order N= 1 SIGMA  =   0.20


--------------------------------------------------------------------------------------------------------


  energy-cutoff  :      400.00
  volume of cell :     3618.13
      direct lattice vectors                 reciprocal lattice vectors
    10.982000000  0.000000000  0.000000000     0.091058095  0.000000000  0.000000000
     0.000000000 10.982000000  0.000000000     0.000000000  0.091058095  0.000000000
     0.000000000  0.000000000 30.000000000     0.000000000  0.000000000  0.033333333

  length of vectors
    10.982000000 10.982000000 30.000000000     0.091058095  0.091058095  0.033333333


 
 k-points in units of 2pi/SCALE and weight: K-Point Grid                            
   0.01138226  0.01138226  0.00000000       0.125
   0.03414679  0.01138226  0.00000000       0.125
  -0.03414679  0.01138226  0.00000000       0.125
  -0.01138226  0.01138226  0.00000000       0.125
   0.01138226  0.03414679  0.00000000       0.125
   0.03414679  0.03414679  0.00000000       0.125
  -0.03414679  0.03414679  0.00000000       0.125
  -0.01138226  0.03414679  0.00000000       0.125
 
 k-points in reciprocal lattice and weights: K-Point Grid                            
   0.12500000  0.12500000  0.00000000       0.125
   0.37500000  0.12500000  0.00000000       0.125
  -0.37500000  0.12500000  0.00000000       0.125
  -0.12500000  0.12500000  0.00000000       0.125
   0.12500000  0.37500000  0.00000000       0.125
   0.37500000  0.37500000  0.00000000       0.125
  -0.37500000  0.37500000  0.00000000       0.125
  -0.12500000  0.37500000  0.00000000       0.125
 
 position of ions in fractional coordinates (direct lattice) 
   0.12500896  0.12500411  0.40291630
   0.12501187  0.37499810  0.40291206
   0.12501150  0.62500862  0.40290981
   0.12500845  0.87501233  0.40291443
   0.37500533  0.12500812  0.40292083
   0.37500478  0.37499801  0.40291753
   0.37499987  0.62500717  0.40291234
   0.37500104  0.87501500  0.40291613
   0.62499585  0.12501058  0.40292092
   0.62499417  0.37499686  0.40291641
   0.62499378  0.62501050  0.40290796
   0.62499570  0.87501938  0.40291367
   0.87499849  0.12500565  0.40291580
   0.87500186  0.37499640  0.40290939
   0.87500586  0.62501250  0.40290446
   0.87500172  0.87501759  0.40291175
   0.99988043  0.99974472  0.46804610
   0.99948457  0.24951753  0.46805427
   0.99895626  0.50005611  0.46821018
   0.99978218  0.74976346  0.46793821
   0.24925579  0.99985059  0.46806832
   0.24876507  0.24944169  0.46787966
   0.24858916  0.50009118  0.46797585
   0.24915270  0.74985778  0.46803932
   0.50010923  0.99965144  0.46791722
   0.49976955  0.24940549  0.46791856
   0.49976532  0.50003653  0.46792053
   0.50009834  0.74973463  0.46795659
   0.75002282  0.99931489  0.46811676
   0.74974286  0.24925352  0.46818067
   0.74942595  0.49977365  0.46813919
   0.74993960  0.74919157  0.46824264
   0.12555210  0.12628759  0.53392306
   0.12272407  0.37449974  0.53324626
   0.12476764  0.62292095  0.53382850
   0.12443836  0.87463418  0.53304569
   0.37377357  0.12368969  0.53268323
   0.37284111  0.37443905  0.53116081
   0.37355283  0.62548793  0.53259285
   0.37473461  0.87467004  0.53282589
   0.62329075  0.12478534  0.53347316
   0.62484509  0.37416726  0.53282902
   0.62320778  0.62291776  0.53379681
   0.62470615  0.87392020  0.53309871
   0.87473157  0.12413270  0.53310817
   0.87351915  0.37457635  0.53340607
   0.87358995  0.62380367  0.53344812
   0.87462128  0.87394057  0.53312776
   0.99945782  0.99916942  0.59825731
   0.99810490  0.24929223  0.59876356
   0.99589962  0.49936024  0.59877867
   0.99943080  0.74940657  0.59832586
   0.24966711  0.99919126  0.59839832
   0.24962594  0.25045117  0.60064618
   0.24860778  0.49845123  0.60039899
   0.24940677  0.74968630  0.59815380
   0.49932519  0.99888764  0.59832804
   0.49724287  0.24899329  0.59876690
   0.49579924  0.49920609  0.59850031
   0.49884405  0.74993581  0.59845152
   0.74950860  0.99836696  0.59836193
   0.74862582  0.24758258  0.59822241
   0.74385794  0.49620800  0.60095645
   0.74937735  0.74758243  0.59845483
   0.37759772  0.37374088  0.63305952
   0.38783126  0.37445601  0.67486813
   0.63378984  0.39515073  0.68683728
   0.66240820  0.31042819  0.68301644
   0.54141627  0.39016587  0.68610620
   0.66322189  0.43811254  0.64966340
 
 position of ions in cartesian coordinates  (Angst):
   1.37284839  1.37279511 12.08748909
   1.37288033  4.11822912 12.08736188
   1.37287625  6.86384463 12.08729432
   1.37284276  9.60938542 12.08743296
   4.11830857  1.37283917 12.08762494
   4.11830253  4.11822816 12.08752584
   4.11824855  6.86382873 12.08737031
   4.11826148  9.60941472 12.08748402
   6.86370444  1.37286615 12.08762755
   6.86368600  4.11821547 12.08749226
   6.86368165  6.86386528 12.08723878
   6.86370280  9.60946282 12.08741025
   9.60923337  1.37281203 12.08747407
   9.60927038  4.11821051 12.08728160
   9.60931435  6.86388731 12.08713380
   9.60926886  9.60944320 12.08735262
  10.98068693 10.97919651 14.04138305
  10.97633957  2.74020154 14.04162808
  10.97053761  5.49161622 14.04630529
  10.97960795  8.23390236 14.03814640
   2.73732706 10.98035923 14.04204958
   2.73193801  2.73936867 14.03638994
   2.73000619  5.49200132 14.03927561
   2.73619494  8.23493811 14.04117970
   5.49219951 10.97817216 14.03751654
   5.48846924  2.73897114 14.03755693
   5.48842271  5.49140121 14.03761598
   5.49208001  8.23358572 14.03869770
   8.23675057 10.97447611 14.04350278
   8.23367606  2.73730214 14.04542002
   8.23019577  5.48851417 14.04417561
   8.23583672  8.22762178 14.04727924
   1.37881314  1.38689036 16.01769166
   1.34775578  4.11275617 15.99738794
   1.37019820  6.84091786 16.01485486
   1.36658206  9.60523253 15.99137067
   4.10478136  1.35836019 15.98049689
   4.09454105  4.11208961 15.93482417
   4.10235714  6.86910850 15.97778544
   4.11533547  9.60562639 15.98477682
   6.84497900  1.37039265 16.00419480
   6.86204882  4.10910488 15.98487056
   6.84406787  6.84088280 16.01390437
   6.86052289  9.59739164 15.99296141
   9.60630207  1.36322527 15.99324496
   9.59298733  4.11359752 16.00218199
   9.59376488  6.85061193 16.00344351
   9.60509084  9.59761535 15.99383282
  10.97604573 10.97287852 17.94771941
  10.96118798  2.73772730 17.96290671
  10.93696958  5.48397412 17.96336019
  10.97574907  8.22998296 17.94977566
   2.74184415 10.97311846 17.95194974
   2.74139202  2.75045470 18.01938546
   2.73021065  5.47399142 18.01196971
   2.73898513  8.23305497 17.94461395
   5.48358921 10.96978405 17.94984120
   5.46072125  2.73444427 17.96300705
   5.44486726  5.48228125 17.95500924
   5.47830533  8.23579502 17.95354556
   8.23110346 10.96406599 17.95085798
   8.22140877  2.71895189 17.94667226
   8.16904792  5.44935628 18.02869357
   8.22966205  8.20995020 17.95364491
   4.14677816  4.10442233 18.99178565
   4.25916286  4.11227590 20.24604395
   6.96028006  4.33954536 20.60511828
   7.27456682  3.40912238 20.49049332
   5.94583343  4.28480158 20.58318597
   7.28350276  4.81135190 19.48990213
 


--------------------------------------------------------------------------------------------------------


 k-point  1 :   0.1250 0.1250 0.0000  plane waves:   65671
 k-point  2 :   0.3750 0.1250 0.0000  plane waves:   65719
 k-point  3 :  -0.3750 0.1250 0.0000  plane waves:   65719
 k-point  4 :  -0.1250 0.1250 0.0000  plane waves:   65671
 k-point  5 :   0.1250 0.3750 0.0000  plane waves:   65719
 k-point  6 :   0.3750 0.3750 0.0000  plane waves:   65776
 k-point  7 :  -0.3750 0.3750 0.0000  plane waves:   65776
 k-point  8 :  -0.1250 0.3750 0.0000  plane waves:   65719

 maximum and minimum number of plane-waves per node :      5503     5452

 maximum number of plane-waves:     65776
 maximum index in each direction: 
   IXMAX=   18   IYMAX=   17   IZMAX=   48
   IXMIN=  -18   IYMIN=  -18   IZMIN=  -48


 real space projection operators:
  total allocation   :      39685.18 KBytes
  max/ min on nodes  :       3350.69       3273.77


 parallel 3D FFT for wavefunctions:
    minimum data exchange during FFTs selected (reduces bandwidth)
 parallel 3D FFT for charge:
    minimum data exchange during FFTs selected (reduces bandwidth)


 total amount of memory used by VASP MPI-rank0   756693. kBytes
=======================================================================

   base      :      30000. kBytes
   nonlr-proj:      10997. kBytes
   fftplans  :      25316. kBytes
   grid      :      72092. kBytes
   one-center:        186. kBytes
   wavefun   :     618102. kBytes
 
     INWAV:  cpu time    0.0000: real time    0.0000
 Broyden mixing: mesh for mixing (old mesh)
   NGX = 35   NGY = 35   NGZ = 97
  (NGX  =144   NGY  =144   NGZ  =392)
  gives a total of 118825 points

 initial charge density was supplied:
 charge density of overlapping atoms calculated
 number of electron     660.0000000 magnetization      70.0000000
 keeping initial charge density in first step


--------------------------------------------------------------------------------------------------------


 Maximum index for non-local projection operator          488
 Maximum index for augmentation-charges         1132 (set IRDMAX)


--------------------------------------------------------------------------------------------------------


 First call to EWALD:  gamma=   0.115
 Maximum number of real-space cells 4x 4x 2
 Maximum number of reciprocal cells 2x 2x 5

    FEWALD:  cpu time    0.0457: real time    0.0406


--------------------------------------- Iteration      1(   1)  ---------------------------------------


    POTLOK:  cpu time    1.0880: real time    1.2456
    SETDIJ:  cpu time    0.1686: real time    0.1408
     EDDAV:  cpu time  293.1448: real time  147.1013
       DOS:  cpu time    0.2459: real time    0.2023
    --------------------------------------------
      LOOP:  cpu time  294.6474: real time  148.6901

 eigenvalue-minimisations  : 14024
 total energy-change (2. order) : 0.4007807E+04  (-0.2457112E+05)
 number of electron     660.0000000 magnetization      70.0000000
 augmentation part      660.0000000 magnetization      70.0000000

 DIPCOR: dipole corrections for dipol
 direction  3 min pos     1,
 dipolmoment           0.000000      0.000000     -0.000149 electrons x Angstroem
 Tr[quadrupol]    -13860.700979

 energy correction for charged system         0.000000 eV
 dipol+quadrupol energy correction           -0.000000 eV
 added-field ion interaction          0.000853 eV  (added to PSCEN)


 Free energy of the ion-electron system (eV)
  ---------------------------------------------------
  alpha Z        PSCENC =       774.60480077
  Ewald energy   TEWEN  =    385088.08424578
  -Hartree energ DENC   =   -438466.32362700
  -exchange      EXHF   =         0.00000000
  -V(xc)+E(xc)   XCENC  =     -1794.62958566
  PAW double counting   =     52528.45871130   -48551.45505577
  entropy T*S    EENTRO =         0.00172043
  eigenvalues    EBANDS =      1439.01979898
  atomic energy  EATOM  =     52990.04641755
  Solvation  Ediel_sol  =         0.00000000
  ---------------------------------------------------
  free energy    TOTEN  =      4007.80742639 eV

  energy without entropy =     4007.80570596  energy(sigma->0) =     4007.80685292


--------------------------------------------------------------------------------------------------------




--------------------------------------- Iteration      1(   2)  ---------------------------------------


     EDDAV:  cpu time  331.2887: real time  166.0601
       DOS:  cpu time    0.1256: real time    0.0639
    --------------------------------------------
      LOOP:  cpu time  331.4144: real time  166.1240

 eigenvalue-minimisations  : 16512
 total energy-change (2. order) :-0.4084455E+04  (-0.3770789E+04)
 number of electron     660.0000000 magnetization      70.0000000
 augmentation part      660.0000000 magnetization      70.0000000

 DIPCOR: dipole corrections for dipol
 direction  3 min pos     1,
 dipolmoment           0.000000      0.000000     -0.000149 electrons x Angstroem
 Tr[quadrupol]    -13860.700979

 energy correction for charged system         0.000000 eV
 dipol+quadrupol energy correction           -0.000000 eV
 added-field ion interaction          0.000853 eV  (added to PSCEN)


 Free energy of the ion-electron system (eV)
  ---------------------------------------------------
  alpha Z        PSCENC =       774.60480077
  Ewald energy   TEWEN  =    385088.08424578
  -Hartree energ DENC   =   -438466.32362700
  -exchange      EXHF   =         0.00000000
  -V(xc)+E(xc)   XCENC  =     -1794.62958566
  PAW double counting   =     52528.45871130   -48551.45505577
  entropy T*S    EENTRO =        -0.00400393
  eigenvalues    EBANDS =     -2645.42973602
  atomic energy  EATOM  =     52990.04641755
  Solvation  Ediel_sol  =         0.00000000
  ---------------------------------------------------
  free energy    TOTEN  =       -76.64783298 eV

  energy without entropy =      -76.64382904  energy(sigma->0) =      -76.64649833


--------------------------------------------------------------------------------------------------------




--------------------------------------- Iteration      1(   3)  ---------------------------------------


     EDDAV:  cpu time  317.2781: real time  159.0145
       DOS:  cpu time    0.1240: real time    0.0622
    --------------------------------------------
      LOOP:  cpu time  317.4021: real time  159.0766

 eigenvalue-minimisations  : 15576
 total energy-change (2. order) :-0.2682772E+03  (-0.2459905E+03)
 number of electron     660.0000000 magnetization      70.0000000
 augmentation part      660.0000000 magnetization      70.0000000

 DIPCOR: dipole corrections for dipol
 direction  3 min pos     1,
 dipolmoment           0.000000      0.000000     -0.000149 electrons x Angstroem
 Tr[quadrupol]    -13860.700979

 energy correction for charged system         0.000000 eV
 dipol+quadrupol energy correction           -0.000000 eV
 added-field ion interaction          0.000853 eV  (added to PSCEN)


 Free energy of the ion-electron system (eV)
  ---------------------------------------------------
  alpha Z        PSCENC =       774.60480077
  Ewald energy   TEWEN  =    385088.08424578
  -Hartree energ DENC   =   -438466.32362700
  -exchange      EXHF   =         0.00000000
  -V(xc)+E(xc)   XCENC  =     -1794.62958566
  PAW double counting   =     52528.45871130   -48551.45505577
  entropy T*S    EENTRO =         0.15536927
  eigenvalues    EBANDS =     -2913.86635503
  atomic energy  EATOM  =     52990.04641755
  Solvation  Ediel_sol  =         0.00000000
  ---------------------------------------------------
  free energy    TOTEN  =      -344.92507878 eV

  energy without entropy =     -345.08044805  energy(sigma->0) =     -344.97686854


--------------------------------------------------------------------------------------------------------




--------------------------------------- Iteration      1(   4)  ---------------------------------------


     EDDAV:  cpu time  315.4753: real time  158.1156
       DOS:  cpu time    0.1250: real time    0.0626
    --------------------------------------------
      LOOP:  cpu time  315.6003: real time  158.1783

 eigenvalue-minimisations  : 15472
 total energy-change (2. order) :-0.6864428E+01  (-0.6770069E+01)
 number of electron     660.0000000 magnetization      70.0000000
 augmentation part      660.0000000 magnetization      70.0000000

 DIPCOR: dipole corrections for dipol
 direction  3 min pos     1,
 dipolmoment           0.000000      0.000000     -0.000149 electrons x Angstroem
 Tr[quadrupol]    -13860.700979

 energy correction for charged system         0.000000 eV
 dipol+quadrupol energy correction           -0.000000 eV
 added-field ion interaction          0.000853 eV  (added to PSCEN)


 Free energy of the ion-electron system (eV)
  ---------------------------------------------------
  alpha Z        PSCENC =       774.60480077
  Ewald energy   TEWEN  =    385088.08424578
  -Hartree energ DENC   =   -438466.32362700
  -exchange      EXHF   =         0.00000000
  -V(xc)+E(xc)   XCENC  =     -1794.62958566
  PAW double counting   =     52528.45871130   -48551.45505577
  entropy T*S    EENTRO =         0.15681980
  eigenvalues    EBANDS =     -2920.73223392
  atomic energy  EATOM  =     52990.04641755
  Solvation  Ediel_sol  =         0.00000000
  ---------------------------------------------------
  free energy    TOTEN  =      -351.78950714 eV

  energy without entropy =     -351.94632694  energy(sigma->0) =     -351.84178041


--------------------------------------------------------------------------------------------------------




--------------------------------------- Iteration      1(   5)  ---------------------------------------


     EDDAV:  cpu time  332.6964: real time  166.7469
       DOS:  cpu time    0.1329: real time    0.0705
    CHARGE:  cpu time    6.9391: real time    6.7950
    MIXING:  cpu time    0.0945: real time    0.1581
    --------------------------------------------
      LOOP:  cpu time  339.8629: real time  173.7706

 eigenvalue-minimisations  : 16528
 total energy-change (2. order) :-0.2695698E+00  (-0.2690749E+00)
 number of electron     659.9999575 magnetization      67.4041237
 augmentation part      261.1475601 magnetization      53.5094334

 DIPCOR: dipole corrections for dipol
 direction  3 min pos     1,
 dipolmoment           0.000000      0.000000     -0.000149 electrons x Angstroem
 Tr[quadrupol]    -13860.700979

 energy correction for charged system         0.000000 eV
 dipol+quadrupol energy correction           -0.000000 eV
 added-field ion interaction          0.000853 eV  (added to PSCEN)


 Broyden mixing:
  rms(total) = 0.59338E+01    rms(broyden)= 0.59331E+01
  rms(prec ) = 0.59893E+01
  weight for this iteration     100.00

 Free energy of the ion-electron system (eV)
  ---------------------------------------------------
  alpha Z        PSCENC =       774.60480077
  Ewald energy   TEWEN  =    385088.08424578
  -Hartree energ DENC   =   -438466.32362700
  -exchange      EXHF   =         0.00000000
  -V(xc)+E(xc)   XCENC  =     -1794.62958566
  PAW double counting   =     52528.45871130   -48551.45505577
  entropy T*S    EENTRO =         0.15670843
  eigenvalues    EBANDS =     -2921.00169232
  atomic energy  EATOM  =     52990.04641755
  Solvation  Ediel_sol  =         0.00000000
  ---------------------------------------------------
  free energy    TOTEN  =      -352.05907691 eV

  energy without entropy =     -352.21578534  energy(sigma->0) =     -352.11131305


--------------------------------------------------------------------------------------------------------




--------------------------------------- Iteration      1(   6)  ---------------------------------------


    POTLOK:  cpu time    0.8437: real time    0.9350
    SETDIJ:  cpu time    0.0760: real time    0.0476
    EDDIAG:  cpu time   46.7764: real time   23.4726
  RMM-DIIS:  cpu time  192.7042: real time   96.6010
    ORTHCH:  cpu time    7.1117: real time    3.5653
       DOS:  cpu time    0.1269: real time    0.0636
    CHARGE:  cpu time    7.1628: real time    6.9705
    MIXING:  cpu time    0.0562: real time    0.0350
    --------------------------------------------
      LOOP:  cpu time  254.8580: real time  131.6907

 eigenvalue-minimisations  : 13815
 total energy-change (2. order) : 0.3347610E+02  (-0.8633810E+01)
 number of electron     659.9999563 magnetization      64.3723946
 augmentation part      271.8521997 magnetization      48.8672750

 DIPCOR: dipole corrections for dipol
 direction  3 min pos     1,
 dipolmoment           0.000000      0.000000     -0.009935 electrons x Angstroem
 Tr[quadrupol]    -13866.040679

 energy correction for charged system         0.000000 eV
 dipol+quadrupol energy correction           -0.000002 eV
 added-field ion interaction          0.056947 eV  (added to PSCEN)


 Broyden mixing:
  rms(total) = 0.33567E+01    rms(broyden)= 0.33558E+01
  rms(prec ) = 0.34207E+01
  weight for this iteration     100.00

 eigenvalues of (default mixing * dielectric matrix)
  average eigenvalue GAMMA=   1.0049
  1.0049

 Free energy of the ion-electron system (eV)
  ---------------------------------------------------
  alpha Z        PSCENC =       774.66089259
  Ewald energy   TEWEN  =    385088.08424578
  -Hartree energ DENC   =   -438290.92774617
  -exchange      EXHF   =         0.00000000
  -V(xc)+E(xc)   XCENC  =     -1790.33417773
  PAW double counting   =     56447.07636443   -52546.70802235
  entropy T*S    EENTRO =         0.09106005
  eigenvalues    EBANDS =     -2990.57201525
  atomic energy  EATOM  =     52990.04641755
  Solvation  Ediel_sol  =         0.00000000
  ---------------------------------------------------
  free energy    TOTEN  =      -318.58298110 eV

  energy without entropy =     -318.67404115  energy(sigma->0) =     -318.61333445


--------------------------------------------------------------------------------------------------------




--------------------------------------- Iteration      1(   7)  ---------------------------------------


    POTLOK:  cpu time    0.9592: real time    0.9366
    SETDIJ:  cpu time    0.0740: real time    0.0469
    EDDIAG:  cpu time   46.8275: real time   23.4691
  RMM-DIIS:  cpu time  190.9288: real time   95.7010
    ORTHCH:  cpu time    7.1189: real time    3.5695
       DOS:  cpu time    0.1199: real time    0.0601
    CHARGE:  cpu time    7.5202: real time    7.3242
    MIXING:  cpu time    0.0446: real time    0.0224
    --------------------------------------------
      LOOP:  cpu time  253.5932: real time  131.1298

 eigenvalue-minimisations  : 13816
 total energy-change (2. order) :-0.1506374E+02  (-0.3667554E+01)
 number of electron     659.9999528 magnetization      62.9065446
 augmentation part      269.2112300 magnetization      49.1061640

 DIPCOR: dipole corrections for dipol
 direction  3 min pos     1,
 dipolmoment           0.000000      0.000000      0.499926 electrons x Angstroem
 Tr[quadrupol]    -13877.146257

 energy correction for charged system         0.000000 eV
 dipol+quadrupol energy correction           -0.006250 eV
 added-field ion interaction         -2.865423 eV  (added to PSCEN)


 Broyden mixing:
  rms(total) = 0.47310E+01    rms(broyden)= 0.47300E+01
  rms(prec ) = 0.56569E+01
  weight for this iteration     100.00

 eigenvalues of (default mixing * dielectric matrix)
  average eigenvalue GAMMA=   0.7895
  1.2247  0.3543

 Free energy of the ion-electron system (eV)
  ---------------------------------------------------
  alpha Z        PSCENC =       771.73227486
  Ewald energy   TEWEN  =    385088.08424578
  -Hartree energ DENC   =   -438713.28697407
  -exchange      EXHF   =         0.00000000
  -V(xc)+E(xc)   XCENC  =     -1787.93000597
  PAW double counting   =     59331.19192215   -55460.82168542
  entropy T*S    EENTRO =        -0.04060930
  eigenvalues    EBANDS =     -2552.62230483
  atomic energy  EATOM  =     52990.04641755
  Solvation  Ediel_sol  =         0.00000000
  ---------------------------------------------------
  free energy    TOTEN  =      -333.64671926 eV

  energy without entropy =     -333.60610995  energy(sigma->0) =     -333.63318282


--------------------------------------------------------------------------------------------------------




--------------------------------------- Iteration      1(   8)  ---------------------------------------


    POTLOK:  cpu time    0.9661: real time    0.9371
    SETDIJ:  cpu time    0.0752: real time    0.0474
    EDDIAG:  cpu time   46.7282: real time   23.4192
  RMM-DIIS:  cpu time  191.6316: real time   96.0449
    ORTHCH:  cpu time    7.1092: real time    3.5643
       DOS:  cpu time    0.1160: real time    0.0581
    CHARGE:  cpu time    7.2330: real time    7.0344
    MIXING:  cpu time    0.0429: real time    0.0215
    --------------------------------------------
      LOOP:  cpu time  253.9022: real time  131.1269

 eigenvalue-minimisations  : 13794
 total energy-change (2. order) :-0.1241979E+02  (-0.3562233E+01)
 number of electron     659.9999589 magnetization      60.9503254
 augmentation part      268.1340036 magnetization      45.0119088

 DIPCOR: dipole corrections for dipol
 direction  3 min pos     1,
 dipolmoment           0.000000      0.000000     -2.042850 electrons x Angstroem
 Tr[quadrupol]    -13878.607845

 energy correction for charged system         0.000000 eV
 dipol+quadrupol energy correction           -0.104357 eV
 added-field ion interaction         11.708994 eV  (added to PSCEN)


 Broyden mixing:
  rms(total) = 0.47340E+01    rms(broyden)= 0.47335E+01
  rms(prec ) = 0.62465E+01
  weight for this iteration     100.00

 eigenvalues of (default mixing * dielectric matrix)
  average eigenvalue GAMMA=   0.7852
  1.5986  0.6102  0.1469

 Free energy of the ion-electron system (eV)
  ---------------------------------------------------
  alpha Z        PSCENC =       786.20858558
  Ewald energy   TEWEN  =    385088.08424578
  -Hartree energ DENC   =   -438721.42323818
  -exchange      EXHF   =         0.00000000
  -V(xc)+E(xc)   XCENC  =     -1784.85453327
  PAW double counting   =     60224.90770862   -56366.68797298
  entropy T*S    EENTRO =        -0.09964580
  eigenvalues    EBANDS =     -2562.24807779
  atomic energy  EATOM  =     52990.04641755
  Solvation  Ediel_sol  =         0.00000000
  ---------------------------------------------------
  free energy    TOTEN  =      -346.06651050 eV

  energy without entropy =     -345.96686470  energy(sigma->0) =     -346.03329524


--------------------------------------------------------------------------------------------------------




--------------------------------------- Iteration      1(   9)  ---------------------------------------


    POTLOK:  cpu time    0.9685: real time    0.9363
    SETDIJ:  cpu time    0.0726: real time    0.0458
    EDDIAG:  cpu time   46.6536: real time   23.3819
  RMM-DIIS:  cpu time  191.7119: real time   96.1284
    ORTHCH:  cpu time    7.1154: real time    3.5678
       DOS:  cpu time    0.1247: real time    0.0625
    CHARGE:  cpu time    7.4585: real time    7.2649
    MIXING:  cpu time    0.0454: real time    0.0227
    --------------------------------------------
      LOOP:  cpu time  254.1507: real time  131.4105

 eigenvalue-minimisations  : 13810
 total energy-change (2. order) : 0.2229375E+02  (-0.2094532E+01)
 number of electron     659.9999532 magnetization      59.6578858
 augmentation part      271.0354459 magnetization      45.2957286

 DIPCOR: dipole corrections for dipol
 direction  3 min pos     1,
 dipolmoment           0.000000      0.000000      0.303085 electrons x Angstroem
 Tr[quadrupol]    -13879.616471

 energy correction for charged system         0.000000 eV
 dipol+quadrupol energy correction           -0.002297 eV
 added-field ion interaction         -1.737188 eV  (added to PSCEN)


 Broyden mixing:
  rms(total) = 0.48115E+01    rms(broyden)= 0.48107E+01
  rms(prec ) = 0.58047E+01
  weight for this iteration     100.00

 eigenvalues of (default mixing * dielectric matrix)
  average eigenvalue GAMMA=   0.7105
  1.8455  0.6856  0.2060  0.1049

 Free energy of the ion-electron system (eV)
  ---------------------------------------------------
  alpha Z        PSCENC =       772.86446270
  Ewald energy   TEWEN  =    385088.08424578
  -Hartree energ DENC   =   -438756.89449277
  -exchange      EXHF   =         0.00000000
  -V(xc)+E(xc)   XCENC  =     -1780.63032628
  PAW double counting   =     61183.26677766   -57341.26680239
  entropy T*S    EENTRO =        -0.01765985
  eigenvalues    EBANDS =     -2479.22538027
  atomic energy  EATOM  =     52990.04641755
  Solvation  Ediel_sol  =         0.00000000
  ---------------------------------------------------
  free energy    TOTEN  =      -323.77275787 eV

  energy without entropy =     -323.75509802  energy(sigma->0) =     -323.76687125


--------------------------------------------------------------------------------------------------------




--------------------------------------- Iteration      1(  10)  ---------------------------------------


    POTLOK:  cpu time    0.9676: real time    0.8689
    SETDIJ:  cpu time    0.0766: real time    0.0478
    EDDIAG:  cpu time   46.8312: real time   23.4711
  RMM-DIIS:  cpu time  192.0666: real time   96.3075
    ORTHCH:  cpu time    7.1073: real time    3.5628
       DOS:  cpu time    0.1273: real time    0.0638
    CHARGE:  cpu time    7.3250: real time    7.1331
    MIXING:  cpu time    0.0526: real time    0.0264
    --------------------------------------------
      LOOP:  cpu time  254.5542: real time  131.4815

 eigenvalue-minimisations  : 13825
 total energy-change (2. order) : 0.2386421E+02  (-0.9243003E+00)
 number of electron     659.9999554 magnetization      58.4378299
 augmentation part      272.3933616 magnetization      41.1317635

 DIPCOR: dipole corrections for dipol
 direction  3 min pos     1,
 dipolmoment           0.000000      0.000000     -0.261195 electrons x Angstroem
 Tr[quadrupol]    -13880.050805

 energy correction for charged system         0.000000 eV
 dipol+quadrupol energy correction           -0.001706 eV
 added-field ion interaction          1.497093 eV  (added to PSCEN)


 Broyden mixing:
  rms(total) = 0.22543E+01    rms(broyden)= 0.22537E+01
  rms(prec ) = 0.24134E+01
  weight for this iteration     100.00

 eigenvalues of (default mixing * dielectric matrix)
  average eigenvalue GAMMA=   0.6563
  1.9815  0.7054  0.3013  0.1835  0.1099

 Free energy of the ion-electron system (eV)
  ---------------------------------------------------
  alpha Z        PSCENC =       776.09933453
  Ewald energy   TEWEN  =    385088.08424578
  -Hartree energ DENC   =   -438767.56355631
  -exchange      EXHF   =         0.00000000
  -V(xc)+E(xc)   XCENC  =     -1777.75316740
  PAW double counting   =     61677.24237822   -57843.04536114
  entropy T*S    EENTRO =        -0.09448097
  eigenvalues    EBANDS =     -2442.92435329
  atomic energy  EATOM  =     52990.04641755
  Solvation  Ediel_sol  =         0.00000000
  ---------------------------------------------------
  free energy    TOTEN  =      -299.90854304 eV

  energy without entropy =     -299.81406207  energy(sigma->0) =     -299.87704939


--------------------------------------------------------------------------------------------------------




--------------------------------------- Iteration      1(  11)  ---------------------------------------


    POTLOK:  cpu time    0.9690: real time    0.8733
    SETDIJ:  cpu time    0.0733: real time    0.0462
    EDDIAG:  cpu time   46.8004: real time   23.4555
  RMM-DIIS:  cpu time  193.4724: real time   96.9923
    ORTHCH:  cpu time    7.1083: real time    3.5635
       DOS:  cpu time    0.1269: real time    0.0636
    CHARGE:  cpu time    7.2333: real time    7.0393
    MIXING:  cpu time    0.0476: real time    0.0239
    --------------------------------------------
      LOOP:  cpu time  255.8311: real time  132.0576

 eigenvalue-minimisations  : 13830
 total energy-change (2. order) : 0.3994623E+01  (-0.8754521E+00)
 number of electron     659.9999566 magnetization      56.5062627
 augmentation part      272.8799566 magnetization      39.9570983

 DIPCOR: dipole corrections for dipol
 direction  3 min pos     1,
 dipolmoment           0.000000      0.000000     -0.331855 electrons x Angstroem
 Tr[quadrupol]    -13879.393123

 energy correction for charged system         0.000000 eV
 dipol+quadrupol energy correction           -0.002754 eV
 added-field ion interaction          1.902094 eV  (added to PSCEN)


 Broyden mixing:
  rms(total) = 0.17056E+01    rms(broyden)= 0.17054E+01
  rms(prec ) = 0.18378E+01
  weight for this iteration     100.00

 eigenvalues of (default mixing * dielectric matrix)
  average eigenvalue GAMMA=   0.6453
  2.1000  0.7745  0.3612  0.3612  0.1672  0.1078

 Free energy of the ion-electron system (eV)
  ---------------------------------------------------
  alpha Z        PSCENC =       776.50328761
  Ewald energy   TEWEN  =    385088.08424578
  -Hartree energ DENC   =   -438741.76398083
  -exchange      EXHF   =         0.00000000
  -V(xc)+E(xc)   XCENC  =     -1777.77908872
  PAW double counting   =     61966.13444417   -58134.22287340
  entropy T*S    EENTRO =        -0.07462477
  eigenvalues    EBANDS =     -2462.84174698
  atomic energy  EATOM  =     52990.04641755
  Solvation  Ediel_sol  =         0.00000000
  ---------------------------------------------------
  free energy    TOTEN  =      -295.91391960 eV

  energy without entropy =     -295.83929484  energy(sigma->0) =     -295.88904468


--------------------------------------------------------------------------------------------------------




--------------------------------------- Iteration      1(  12)  ---------------------------------------


    POTLOK:  cpu time    0.9671: real time    0.8703
    SETDIJ:  cpu time    0.0737: real time    0.0464
    EDDIAG:  cpu time   43.5555: real time   21.8306
  RMM-DIIS:  cpu time  191.2829: real time  109.5785
    ORTHCH:  cpu time    7.1873: real time    3.6423
       DOS:  cpu time    0.1898: real time    0.1274
    CHARGE:  cpu time    7.3057: real time    7.1778
    MIXING:  cpu time    0.0477: real time    0.0239
    --------------------------------------------
      LOOP:  cpu time  250.6098: real time  143.2973

 eigenvalue-minimisations  : 13823
 total energy-change (2. order) :-0.7906100E+00  (-0.2551122E+00)
 number of electron     659.9999561 magnetization      55.5500161
 augmentation part      271.7169713 magnetization      38.5750588

 DIPCOR: dipole corrections for dipol
 direction  3 min pos     1,
 dipolmoment           0.000000      0.000000     -0.231889 electrons x Angstroem
 Tr[quadrupol]    -13882.035143

 energy correction for charged system         0.000000 eV
 dipol+quadrupol energy correction           -0.001345 eV
 added-field ion interaction          1.329117 eV  (added to PSCEN)


 Broyden mixing:
  rms(total) = 0.12880E+01    rms(broyden)= 0.12879E+01
  rms(prec ) = 0.13723E+01
  weight for this iteration     100.00

 eigenvalues of (default mixing * dielectric matrix)
  average eigenvalue GAMMA=   0.6154
  2.0937  0.7679  0.4650  0.4650  0.2427  0.1645  0.1089

 Free energy of the ion-electron system (eV)
  ---------------------------------------------------
  alpha Z        PSCENC =       775.93172075
  Ewald energy   TEWEN  =    385088.08424578
  -Hartree energ DENC   =   -438866.91342557
  -exchange      EXHF   =         0.00000000
  -V(xc)+E(xc)   XCENC  =     -1778.34166014
  PAW double counting   =     62313.07509943   -58481.90746822
  entropy T*S    EENTRO =        -0.01443631
  eigenvalues    EBANDS =     -2336.66502290
  atomic energy  EATOM  =     52990.04641755
  Solvation  Ediel_sol  =         0.00000000
  ---------------------------------------------------
  free energy    TOTEN  =      -296.70452964 eV

  energy without entropy =     -296.69009333  energy(sigma->0) =     -296.69971753


--------------------------------------------------------------------------------------------------------




--------------------------------------- Iteration      1(  13)  ---------------------------------------


    POTLOK:  cpu time    0.9602: real time    0.9248
    SETDIJ:  cpu time    0.0729: real time    0.0461
    EDDIAG:  cpu time   47.1267: real time   23.6205
  RMM-DIIS:  cpu time  191.0506: real time   95.7796
    ORTHCH:  cpu time    7.1833: real time    3.6377
       DOS:  cpu time    0.1720: real time    0.1096
    CHARGE:  cpu time    7.2484: real time    7.1028
    MIXING:  cpu time    0.0515: real time    0.0258
    --------------------------------------------
      LOOP:  cpu time  253.8655: real time  131.2469

 eigenvalue-minimisations  : 13832
 total energy-change (2. order) :-0.2264035E+01  (-0.1402119E+00)
 number of electron     659.9999560 magnetization      53.9912105
 augmentation part      271.4601611 magnetization      37.2263598

 DIPCOR: dipole corrections for dipol
 direction  3 min pos     1,
 dipolmoment           0.000000      0.000000     -0.172514 electrons x Angstroem
 Tr[quadrupol]    -13882.841021

 energy correction for charged system         0.000000 eV
 dipol+quadrupol energy correction           -0.000744 eV
 added-field ion interaction          0.988796 eV  (added to PSCEN)


 Broyden mixing:
  rms(total) = 0.11475E+01    rms(broyden)= 0.11474E+01
  rms(prec ) = 0.12520E+01
  weight for this iteration     100.00

 eigenvalues of (default mixing * dielectric matrix)
  average eigenvalue GAMMA=   0.6192
  2.0408  0.7637  0.7637  0.6182  0.2764  0.1083  0.1670  0.2151

 Free energy of the ion-electron system (eV)
  ---------------------------------------------------
  alpha Z        PSCENC =       775.59200012
  Ewald energy   TEWEN  =    385088.08424578
  -Hartree energ DENC   =   -438904.41903043
  -exchange      EXHF   =         0.00000000
  -V(xc)+E(xc)   XCENC  =     -1780.00794321
  PAW double counting   =     62349.78000759   -58517.78175391
  entropy T*S    EENTRO =        -0.02721640
  eigenvalues    EBANDS =     -2300.23529155
  atomic energy  EATOM  =     52990.04641755
  Solvation  Ediel_sol  =         0.00000000
  ---------------------------------------------------
  free energy    TOTEN  =      -298.96856445 eV

  energy without entropy =     -298.94134805  energy(sigma->0) =     -298.95949231


--------------------------------------------------------------------------------------------------------




--------------------------------------- Iteration      1(  14)  ---------------------------------------


    POTLOK:  cpu time    0.9669: real time    0.8700
    SETDIJ:  cpu time    0.0731: real time    0.0461
    EDDIAG:  cpu time   47.4925: real time   23.8027
  RMM-DIIS:  cpu time  190.5425: real time   95.5337
    ORTHCH:  cpu time    7.1260: real time    3.5729
       DOS:  cpu time    0.2350: real time    0.1723
[...]
   -.248E+02 0.368E+02 -.255E+04   0.248E+02 -.367E+02 0.255E+04   0.971E-02 -.918E-01 0.317E+01   0.303E-03 0.189E-03 -.103E-02
   -.807E+02 0.749E+02 -.246E+04   0.806E+02 -.749E+02 0.246E+04   0.137E+00 -.601E-01 0.255E+01   0.431E-03 -.758E-04 -.804E-03
   -.115E+03 -.815E+02 -.247E+04   0.113E+03 0.804E+02 0.247E+04   0.161E+01 0.102E+01 0.612E+00   0.222E-03 -.212E-03 -.647E-03
   -.282E+02 -.435E+02 -.254E+04   0.282E+02 0.434E+02 0.254E+04   -.466E-02 0.673E-01 0.325E+01   0.165E-03 0.976E-04 -.925E-03
   0.688E+02 0.432E+01 -.134E+04   -.721E+02 -.445E+01 0.132E+04   0.326E+01 0.131E+00 0.233E+02   -.817E-04 0.538E-04 0.125E-03
   0.789E+02 0.614E+01 -.208E+04   -.800E+02 -.630E+01 0.213E+04   0.106E+01 0.176E+00 -.491E+02   -.705E-04 -.417E-05 0.638E-03
   -.114E+03 -.406E+02 -.188E+04   0.133E+03 0.713E+02 0.190E+04   -.185E+02 -.307E+02 -.187E+02   0.141E-03 -.402E-04 0.548E-03
   -.412E+02 0.852E+02 -.301E+03   0.439E+02 -.926E+02 0.301E+03   -.271E+01 0.744E+01 0.846E+00   0.318E-04 -.279E-04 0.102E-03
   0.471E+02 -.861E+00 -.317E+03   -.541E+02 0.668E+00 0.317E+03   0.698E+01 0.202E+00 -.117E-01   0.142E-05 -.256E-05 0.106E-03
   -.217E+02 -.208E+02 -.281E+03   0.219E+02 0.213E+02 0.280E+03   -.215E+00 -.545E+00 0.105E+01   0.245E-04 -.721E-05 0.466E-04
 -----------------------------------------------------------------------------------------------
   0.877E+01 0.225E+02 0.481E+02   0.334E-12 0.313E-12 -.210E-10   -.878E+01 -.225E+02 -.480E+02   0.360E-04 -.516E-04 -.101E+00
 
 
 POSITION                                       TOTAL-FORCE (eV/Angst)
 -----------------------------------------------------------------------------------
      1.37285      1.37280     12.08749        -0.021759     -0.019243     -0.016133
      1.37288      4.11823     12.08736        -0.043617      0.003755      0.006199
      1.37288      6.86384     12.08729        -0.028865     -0.006289     -0.001788
      1.37284      9.60939     12.08743        -0.010832      0.008908     -0.005813
      4.11831      1.37284     12.08762        -0.011598     -0.021044     -0.001680
      4.11830      4.11823     12.08753        -0.016673     -0.002837      0.002656
      4.11825      6.86383     12.08737        -0.014623      0.010342      0.010161
      4.11826      9.60941     12.08748        -0.015011     -0.004942      0.010823
      6.86370      1.37287     12.08763         0.011730     -0.012983      0.005864
      6.86369      4.11822     12.08749         0.008518     -0.013564      0.013855
      6.86368      6.86387     12.08724         0.007044      0.002839      0.001020
      6.86370      9.60946     12.08741         0.029097     -0.018212      0.005555
      9.60923      1.37281     12.08747        -0.006549     -0.020583      0.008763
      9.60927      4.11821     12.08728        -0.011882     -0.008544      0.024729
      9.60931      6.86389     12.08713        -0.010395      0.007343      0.005391
      9.60927      9.60944     12.08735        -0.013134     -0.015496     -0.037081
     10.98069     10.97920     14.04138         0.000737      0.002701      0.012305
     10.97634      2.74020     14.04163         0.003033      0.001043      0.000060
     10.97054      5.49162     14.04631         0.002881      0.001789      0.006601
     10.97961      8.23390     14.03815        -0.000298     -0.002974      0.002106
      2.73733     10.98036     14.04205         0.001759     -0.002006      0.000143
      2.73194      2.73937     14.03639         0.007918      0.004439      0.002935
      2.73001      5.49200     14.03928         0.002016      0.003558     -0.005980
      2.73619      8.23494     14.04118         0.004011      0.001628     -0.006406
      5.49220     10.97817     14.03752         0.000867     -0.002853      0.011875
      5.48847      2.73897     14.03756        -0.000035     -0.003903     -0.003407
      5.48842      5.49140     14.03762        -0.002804      0.002879      0.007971
      5.49208      8.23359     14.03870         0.001233     -0.003754     -0.000932
      8.23675     10.97448     14.04350        -0.000269      0.002829      0.002693
      8.23368      2.73730     14.04542         0.001796      0.005138     -0.010317
      8.23020      5.48851     14.04418         0.003860      0.001296      0.003041
      8.23584      8.22762     14.04728        -0.000955      0.004914     -0.012493
      1.37881      1.38689     16.01769         0.002467      0.002846     -0.003973
      1.34776      4.11276     15.99739         0.001026      0.006237      0.002736
      1.37020      6.84092     16.01485        -0.000592     -0.000580      0.010397
      1.36658      9.60523     15.99137        -0.003378     -0.004686     -0.001955
      4.10478      1.35836     15.98050         0.002052     -0.004003     -0.002979
      4.09454      4.11209     15.93482         0.001200     -0.001036      0.007649
      4.10236      6.86911     15.97779        -0.003328      0.005582      0.003842
      4.11534      9.60563     15.98478        -0.007992     -0.005131      0.004212
      6.84498      1.37039     16.00419        -0.005947      0.002289     -0.003499
      6.86205      4.10910     15.98487         0.006952     -0.001701     -0.002078
      6.84407      6.84088     16.01390        -0.000889     -0.003815      0.008852
      6.86052      9.59739     15.99296         0.006254     -0.002616      0.001462
      9.60630      1.36323     15.99324        -0.002747     -0.001450     -0.000894
      9.59299      4.11360     16.00218        -0.003065     -0.000156     -0.003564
      9.59376      6.85061     16.00344         0.003585      0.000526      0.008598
      9.60509      9.59762     15.99383        -0.005701     -0.004419      0.001187
     10.97605     10.97288     17.94772        -0.003462      0.001201     -0.007651
     10.96119      2.73773     17.96291         0.009237     -0.001577     -0.002245
     10.93697      5.48397     17.96336         0.007991      0.001023     -0.002943
     10.97575      8.22998     17.94978        -0.004122      0.003958     -0.009203
      2.74184     10.97312     17.95195        -0.001084     -0.000677     -0.008143
      2.74139      2.75045     18.01939         0.005841      0.003726      0.000458
      2.73021      5.47399     18.01197         0.007350      0.003252      0.001978
      2.73899      8.23305     17.94461        -0.001876     -0.000311      0.007298
      5.48359     10.96978     17.94984         0.004345      0.000773     -0.005089
      5.46072      2.73444     17.96301         0.007664     -0.002458     -0.002401
      5.44487      5.48228     17.95501         0.013244      0.000236     -0.004911
      5.47831      8.23580     17.95355         0.004239      0.001449     -0.014290
      8.23110     10.96407     17.95086         0.001090      0.006287     -0.009048
      8.22141      2.71895     17.94667         0.009853      0.000669      0.000521
      8.16905      5.44936     18.02869         0.008614      0.007810     -0.005097
      8.22966      8.20995     17.95364         0.000957      0.003930     -0.005257
      4.14678      4.10442     18.99179         0.012016      0.000987     -0.013948
      4.25916      4.11228     20.24604         0.016596      0.020006      0.010942
      6.96028      4.33955     20.60512         0.006833      0.002026     -0.006792
      7.27457      3.40912     20.49049         0.017915      0.011565     -0.034748
      5.94583      4.28480     20.58319         0.002036      0.008864     -0.009741
      7.28350      4.81135     19.48990         0.007628      0.033201      0.047598
 -----------------------------------------------------------------------------------
    total drift:                               -0.007726     -0.007400      0.019860


--------------------------------------------------------------------------------------------------------



  FREE ENERGIE OF THE ION-ELECTRON SYSTEM (eV)
  ---------------------------------------------------
  free  energy   TOTEN  =      -368.87477561 eV

  energy  without entropy=     -368.75722859  energy(sigma->0) =     -368.83559327
 


--------------------------------------------------------------------------------------------------------


    POTLOK:  cpu time    0.9239: real time    0.9024


--------------------------------------------------------------------------------------------------------


 NEB: the previous image is higher in energy: F
 NEB: the next image is higher in energy    : F
 NEB: image is at an extrema
 NEB: diff energy (min, max):     0.184372    0.233965

 NEB: Tangent
 ----------------------------------------------
     -0.00011     -0.00003      0.00054
     -0.00014      0.00000      0.00065
     -0.00013     -0.00012      0.00070
     -0.00010     -0.00014      0.00058
     -0.00008     -0.00008      0.00039
     -0.00008     -0.00000      0.00046
     -0.00003     -0.00009      0.00061
     -0.00003     -0.00016      0.00052
      0.00002     -0.00011      0.00040
      0.00003      0.00000      0.00045
      0.00004     -0.00011      0.00070
      0.00002     -0.00020      0.00059
     -0.00002     -0.00005      0.00056
     -0.00005      0.00001      0.00070
     -0.00009     -0.00014      0.00084
     -0.00006     -0.00019      0.00066
      0.00347     -0.00145      0.00199
      0.00477     -0.00011      0.00077
      0.00263     -0.00075      0.00100
     -0.00100     -0.00173      0.00542
      0.00215      0.00071      0.00082
      0.00297      0.00000     -0.00059
      0.00042      0.00130     -0.00183
     -0.00066      0.00199      0.00008
      0.00150     -0.00049      0.00285
      0.00324     -0.00068     -0.00074
      0.00096      0.00092      0.00037
      0.00082      0.00013      0.00287
      0.00013     -0.00317     -0.00102
      0.00323     -0.00288     -0.00105
      0.00111     -0.00011     -0.00052
     -0.00199     -0.00013     -0.00137
      0.00955      0.00238      0.00499
      0.00509      0.00058      0.00208
      0.00176     -0.00058      0.00492
      0.00243      0.00060      0.00438
      0.00487      0.00002      0.00193
      0.00307      0.00068     -0.00749
     -0.00541      0.00725     -0.00321
      0.00115      0.00241      0.00381
      0.00414     -0.00311      0.00167
      0.00707     -0.00249      0.00164
     -0.00050     -0.00454      0.00497
      0.00089     -0.00400      0.00387
      0.01086     -0.00870     -0.00644
      0.00511     -0.00255     -0.00499
      0.00004     -0.00041     -0.00148
      0.00015     -0.00372      0.00114
      0.00421     -0.00031      0.00116
      0.01099      0.00134      0.00032
     -0.00789     -0.00280     -0.00041
     -0.00223     -0.00160      0.00171
      0.00478      0.00221      0.00482
      0.01618      0.00399      0.00723
     -0.00623      0.00276      0.00607
     -0.00144      0.00244      0.00702
      0.00576      0.00380      0.00465
      0.02023      0.00614     -0.00554
     -0.00914      0.01397     -0.02353
      0.00043      0.00147      0.00346
      0.00574     -0.01402      0.00148
      0.02935     -0.02279     -0.02487
     -0.00923     -0.02528     -0.00560
     -0.00064     -0.01647      0.00416
      0.04311      0.01624     -0.06407
      0.03270      0.02207      0.01684
     -0.15047     -0.11106     -0.03717
     -0.13108     -0.11800      0.02885
     -0.49764     -0.05569     -0.16316
     -0.12233     -0.01249      0.79036

 NEB: forces: par spring, perp REAL, dneb     3.026012    0.094421    0.000000
 NEB: distance to prev, next image, angle between     0.793723    1.398925   87.823501
 NEB: projections on to tangent (spring, REAL)     3.026012    0.033566

 stress matrix after NEB project (eV)
    -39.48028     -0.08767      0.92960
     -0.08767    -38.92627      0.72040
      0.92960      0.72040     -5.62070
  FORCES: max atom, RMS     0.049388    0.011977
  FORCE total and by dimension    0.100209    0.036685
  Stress total and by dimension   55.752321   39.480282
 Quasi-Newton relaxation of ions (Broydens 2nd method)
  g(Force)  = 0.107E-02   g(Stress)= 0.000E+00

 Reset! Starting new Quasi-Newton update for ions 


--------------------------------------------------------------------------------------------------------


  
 reached required accuracy - stopping structural energy minimisation
     LOOP+:  cpu time14221.7332: real time 7465.8746
    4ORBIT:  cpu time    0.0000: real time    0.0000
 


 total charge     
 
# of ion       s       p       d       tot
------------------------------------------
    1        0.446   0.309   8.521   9.276
    2        0.445   0.308   8.522   9.275
    3        0.446   0.308   8.522   9.276
    4        0.444   0.309   8.520   9.274
    5        0.445   0.308   8.522   9.275
    6        0.445   0.307   8.521   9.273
    7        0.445   0.308   8.522   9.274
    8        0.445   0.307   8.523   9.275
    9        0.446   0.308   8.521   9.275
   10        0.445   0.308   8.522   9.274
   11        0.446   0.308   8.521   9.275
   12        0.445   0.308   8.520   9.273
   13        0.445   0.308   8.520   9.273
   14        0.445   0.306   8.523   9.274
   15        0.445   0.308   8.520   9.273
   16        0.444   0.307   8.523   9.275
   17        0.485   0.475   8.463   9.423
   18        0.484   0.477   8.460   9.422
   19        0.485   0.477   8.458   9.421
   20        0.483   0.474   8.465   9.422
   21        0.486   0.479   8.460   9.425
   22        0.488   0.483   8.458   9.430
   23        0.488   0.482   8.458   9.427
   24        0.486   0.478   8.461   9.425
   25        0.486   0.479   8.460   9.425
   26        0.487   0.481   8.458   9.427
   27        0.487   0.481   8.457   9.426
   28        0.485   0.478   8.460   9.424
   29        0.485   0.476   8.461   9.422
   30        0.485   0.478   8.459   9.422
   31        0.486   0.479   8.459   9.425
   32        0.485   0.476   8.461   9.422
   33        0.486   0.474   8.459   9.419
   34        0.483   0.469   8.465   9.417
   35        0.485   0.473   8.459   9.417
   36        0.485   0.475   8.457   9.417
   37        0.485   0.473   8.467   9.425
   38        0.476   0.458   8.490   9.424
   39        0.485   0.473   8.468   9.426
   40        0.486   0.479   8.460   9.425
   41        0.488   0.476   8.463   9.427
   42        0.484   0.472   8.470   9.426
   43        0.486   0.474   8.463   9.423
   44        0.485   0.475   8.458   9.418
   45        0.485   0.475   8.460   9.420
   46        0.484   0.473   8.465   9.422
   47        0.485   0.468   8.467   9.420
   48        0.488   0.477   8.457   9.422
   49        0.446   0.309   8.520   9.275
   50        0.446   0.307   8.523   9.276
   51        0.444   0.303   8.525   9.271
   52        0.446   0.308   8.520   9.274
   53        0.446   0.307   8.524   9.277
   54        0.435   0.371   8.524   9.330
   55        0.432   0.365   8.527   9.324
   56        0.447   0.309   8.523   9.280
   57        0.448   0.310   8.524   9.281
   58        0.449   0.392   8.534   9.375
   59        0.454   0.407   8.529   9.391
   60        0.446   0.307   8.525   9.278
   61        0.445   0.308   8.521   9.273
   62        0.458   0.324   8.530   9.312
   63        0.484   0.353   8.543   9.381
   64        0.443   0.305   8.522   9.270
   65        1.280   2.318   0.000   3.598
   66        1.620   3.442   0.000   5.062
   67        1.597   3.612   0.000   5.209
   68        0.591   0.107   0.000   0.698
   69        0.551   0.103   0.000   0.654
   70        0.428   0.050   0.000   0.478
--------------------------------------------------
tot         35.881  35.062 543.548 614.491
 


 magnetization (x)
 
# of ion       s       p       d       tot
------------------------------------------
    1       -0.000  -0.004   0.230   0.226
    2       -0.001  -0.003   0.226   0.221
    3       -0.000  -0.004   0.225   0.221
    4       -0.001  -0.003   0.232   0.227
    5       -0.001  -0.004   0.229   0.224
    6       -0.000  -0.004   0.229   0.225
    7       -0.001  -0.004   0.224   0.220
    8       -0.000  -0.004   0.218   0.213
    9       -0.001  -0.004   0.223   0.219
   10       -0.001  -0.003   0.226   0.222
   11       -0.000  -0.004   0.224   0.220
   12       -0.001  -0.003   0.226   0.222
   13       -0.001  -0.003   0.222   0.218
   14       -0.000  -0.004   0.212   0.207
   15       -0.001  -0.003   0.223   0.219
   16        0.003  -0.004   0.238   0.237
   17       -0.002  -0.006   0.315   0.307
   18       -0.002  -0.006   0.319   0.311
   19       -0.002  -0.006   0.315   0.307
   20       -0.002  -0.006   0.318   0.310
   21       -0.002  -0.006   0.327   0.318
   22       -0.002  -0.006   0.324   0.316
   23       -0.002  -0.006   0.320   0.312
   24       -0.002  -0.006   0.319   0.311
   25       -0.002  -0.006   0.321   0.313
   26       -0.002  -0.006   0.316   0.308
   27       -0.002  -0.006   0.317   0.309
   28       -0.002  -0.006   0.320   0.312
   29       -0.002  -0.006   0.311   0.303
   30       -0.002  -0.006   0.314   0.306
   31       -0.002  -0.006   0.321   0.313
   32       -0.002  -0.006   0.311   0.304
   33       -0.002  -0.006   0.283   0.275
   34       -0.002  -0.006   0.305   0.298
   35       -0.002  -0.006   0.277   0.269
   36       -0.002  -0.006   0.313   0.306
   37       -0.002  -0.006   0.311   0.304
   38       -0.001  -0.005   0.262   0.256
   39       -0.002  -0.006   0.304   0.297
   40       -0.002  -0.006   0.315   0.307
   41       -0.002  -0.006   0.268   0.260
   42       -0.001  -0.005   0.287   0.280
   43       -0.002  -0.006   0.267   0.259
   44       -0.002  -0.006   0.308   0.301
   45       -0.002  -0.006   0.304   0.296
   46       -0.002  -0.006   0.298   0.291
   47       -0.002  -0.006   0.297   0.290
   48       -0.001  -0.006   0.319   0.312
   49       -0.001  -0.003   0.221   0.217
   50       -0.000  -0.003   0.205   0.201
   51       -0.000  -0.003   0.200   0.196
   52       -0.001  -0.003   0.222   0.218
   53       -0.001  -0.003   0.208   0.204
   54       -0.002  -0.004   0.099   0.093
   55       -0.002  -0.004   0.101   0.095
   56       -0.001  -0.003   0.208   0.204
   57       -0.001  -0.003   0.204   0.200
   58       -0.002  -0.004   0.093   0.087
   59       -0.002  -0.004   0.087   0.081
   60       -0.000  -0.003   0.207   0.203
   61       -0.001  -0.003   0.208   0.204
   62       -0.001  -0.004   0.176   0.172
   63       -0.001  -0.005   0.113   0.107
   64       -0.001  -0.003   0.206   0.203
   65        0.001  -0.010   0.000  -0.009
   66       -0.000  -0.014   0.000  -0.014
   67       -0.000  -0.001   0.000  -0.002
   68        0.000  -0.000   0.000   0.000
   69       -0.000  -0.000   0.000  -0.000
   70       -0.001  -0.000   0.000  -0.001
--------------------------------------------------
tot         -0.081  -0.331  16.172  15.760
 

 total amount of memory used by VASP MPI-rank0   756693. kBytes
=======================================================================

   base      :      30000. kBytes
   nonlr-proj:      10997. kBytes
   fftplans  :      25316. kBytes
   grid      :      72092. kBytes
   one-center:        186. kBytes
   wavefun   :     618102. kBytes
 
  
  
 General timing and accounting informations for this job:
 ========================================================
  
                  Total CPU time used (sec):    14282.801
                            User time (sec):    13871.865
                          System time (sec):      410.935
                         Elapsed time (sec):     7711.762
  
                   Maximum memory used (kb):     1235572.
                   Average memory used (kb):           0.
  
                          Minor page faults:      1680544
                          Major page faults:           21
                 Voluntary context switches:       251935
