 vasp.5.4.4.18Apr17-6-g9f103f2a35 (build May 01 2020 14:57:12) complex          
  
 executed on             LinuxIFC date 2021.12.14  07:33:00
 running on  192 total cores
 distrk:  each k-point on  192 cores,    1 groups
 distr:  one band on NCORES_PER_BAND=   1 cores,  192 groups


--------------------------------------------------------------------------------------------------------


 INCAR:
 POTCAR:    PAW_PBE H 15Jun2001                   
 POTCAR:    PAW_PBE N 08Apr2002                   
 POTCAR:    PAW_PBE O 08Apr2002                   
 POTCAR:    PAW_PBE Pd 04Jan2005                  

 ----------------------------------------------------------------------------- 
|                                                                             |
|           W    W    AA    RRRRR   N    N  II  N    N   GGGG   !!!           |
|           W    W   A  A   R    R  NN   N  II  NN   N  G    G  !!!           |
|           W    W  A    A  R    R  N N  N  II  N N  N  G       !!!           |
|           W WW W  AAAAAA  RRRRR   N  N N  II  N  N N  G  GGG   !            |
|           WW  WW  A    A  R   R   N   NN  II  N   NN  G    G                |
|           W    W  A    A  R    R  N    N  II  N    N   GGGG   !!!           |
|                                                                             |
|      For optimal performance we recommend to set                            |
|        NCORE= 4 - approx SQRT( number of cores)                             |
|      NCORE specifies how many cores store one orbital (NPAR=cpu/NCORE).     |
|      This setting can  greatly improve the performance of VASP for DFT.     |
|      The default,   NCORE=1            might be grossly inefficient         |
|      on modern multi-core architectures or massively parallel machines.     |
|      Do your own testing !!!!                                               |
|      Unfortunately you need to use the default for GW and RPA calculations. |
|      (for HF NCORE is supported but not extensively tested yet)             |
|                                                                             |
 ----------------------------------------------------------------------------- 

 POTCAR:    PAW_PBE H 15Jun2001                   
   VRHFIN =H: ultrasoft test                                                    
   LEXCH  = PE                                                                  
   EATOM  =    12.4884 eV,    0.9179 Ry                                         
                                                                                
   TITEL  = PAW_PBE H 15Jun2001                                                 
   LULTRA =        F    use ultrasoft PP ?                                      
   IUNSCR =        0    unscreen: 0-lin 1-nonlin 2-no                           
   RPACOR =    0.000    partial core radius                                     
   POMASS =    1.000; ZVAL   =    1.000    mass and valenz                      
   RCORE  =    1.100    outmost cutoff radius                                   
   RWIGS  =    0.700; RWIGS  =    0.370    wigner-seitz radius (au A)           
   ENMAX  =  250.000; ENMIN  =  200.000 eV                                      
   RCLOC  =    0.701    cutoff for local pot                                    
   LCOR   =        T    correct aug charges                                     
   LPAW   =        T    paw PP                                                  
   EAUG   =  400.000                                                            
   RMAX   =    1.123    core radius for proj-oper                               
   RAUG   =    1.200    factor for augmentation sphere                          
   RDEP   =    1.112    radius for radial grids                                 
   RDEPT  =    0.926    core radius for aug-charge                              
                                                                                
   Atomic configuration                                                         
    2 entries                                                                   
     n  l   j            E        occ.                                          
     1  0  0.50        -6.4927   1.0000                                         
     2  1  0.50        -3.4015   0.0000                                         
   Description                                                                  
     l       E           TYP  RCUT    TYP  RCUT                                 
     0     -6.4927494     23  1.100                                             
     0      6.8029130     23  1.100                                             
     1     -4.0817478     23  1.100                                             
  local pseudopotential read in
  atomic valenz-charges read in
  non local Contribution for L=           0  read in
    real space projection operators read in
  non local Contribution for L=           0  read in
    real space projection operators read in
  non local Contribution for L=           1  read in
    real space projection operators read in
    PAW grid and wavefunctions read in
 
   number of l-projection  operators is LMAX  =           3
   number of lm-projection operators is LMMAX =           5
 
 POTCAR:    PAW_PBE N 08Apr2002                   
   VRHFIN =N: s2p3                                                              
   LEXCH  = PE                                                                  
   EATOM  =   264.5486 eV,   19.4438 Ry                                         
                                                                                
   TITEL  = PAW_PBE N 08Apr2002                                                 
   LULTRA =        F    use ultrasoft PP ?                                      
   IUNSCR =        1    unscreen: 0-lin 1-nonlin 2-no                           
   RPACOR =    1.200    partial core radius                                     
   POMASS =   14.001; ZVAL   =    5.000    mass and valenz                      
   RCORE  =    1.500    outmost cutoff radius                                   
   RWIGS  =    1.400; RWIGS  =    0.741    wigner-seitz radius (au A)           
   ENMAX  =  400.000; ENMIN  =  300.000 eV                                      
   ICORE  =        2    local potential                                         
   LCOR   =        T    correct aug charges                                     
   LPAW   =        T    paw PP                                                  
   EAUG   =  627.112                                                            
   DEXC   =    0.000                                                            
   RMAX   =    1.529    core radius for proj-oper                               
   RAUG   =    1.300    factor for augmentation sphere                          
   RDEP   =    1.514    radius for radial grids                                 
   RDEPT  =    1.338    core radius for aug-charge                              
                                                                                
   Atomic configuration                                                         
    4 entries                                                                   
     n  l   j            E        occ.                                          
     1  0  0.50      -384.7179   2.0000                                         
     2  0  0.50       -18.5828   2.0000                                         
     2  1  0.50        -7.0898   3.0000                                         
     3  2  1.50        -6.8029   0.0000                                         
   Description                                                                  
     l       E           TYP  RCUT    TYP  RCUT                                 
     0    -18.5828119     23  1.200                                             
     0    -13.5018863     23  1.200                                             
     1     -7.0897853     23  1.500                                             
     1      9.5240782     23  1.500                                             
     2     -6.8029130      7  1.500                                             
  local pseudopotential read in
  partial core-charges read in
  partial kinetic energy density read in
  atomic valenz-charges read in
  non local Contribution for L=           0  read in
    real space projection operators read in
  non local Contribution for L=           0  read in
    real space projection operators read in
  non local Contribution for L=           1  read in
    real space projection operators read in
  non local Contribution for L=           1  read in
    real space projection operators read in
    PAW grid and wavefunctions read in
 
   number of l-projection  operators is LMAX  =           4
   number of lm-projection operators is LMMAX =           8
 
 POTCAR:    PAW_PBE O 08Apr2002                   
   VRHFIN =O: s2p4                                                              
   LEXCH  = PE                                                                  
   EATOM  =   432.3788 eV,   31.7789 Ry                                         
                                                                                
   TITEL  = PAW_PBE O 08Apr2002                                                 
   LULTRA =        F    use ultrasoft PP ?                                      
   IUNSCR =        1    unscreen: 0-lin 1-nonlin 2-no                           
   RPACOR =    1.200    partial core radius                                     
   POMASS =   16.000; ZVAL   =    6.000    mass and valenz                      
   RCORE  =    1.520    outmost cutoff radius                                   
   RWIGS  =    1.550; RWIGS  =    0.820    wigner-seitz radius (au A)           
   ENMAX  =  400.000; ENMIN  =  300.000 eV                                      
   ICORE  =        2    local potential                                         
   LCOR   =        T    correct aug charges                                     
   LPAW   =        T    paw PP                                                  
   EAUG   =  605.392                                                            
   DEXC   =    0.000                                                            
   RMAX   =    1.553    core radius for proj-oper                               
   RAUG   =    1.300    factor for augmentation sphere                          
   RDEP   =    1.550    radius for radial grids                                 
   RDEPT  =    1.329    core radius for aug-charge                              
                                                                                
   Atomic configuration                                                         
    4 entries                                                                   
     n  l   j            E        occ.                                          
     1  0  0.50      -514.6923   2.0000                                         
     2  0  0.50       -23.9615   2.0000                                         
     2  1  0.50        -9.0305   4.0000                                         
     3  2  1.50        -9.5241   0.0000                                         
   Description                                                                  
     l       E           TYP  RCUT    TYP  RCUT                                 
     0    -23.9615318     23  1.200                                             
     0     -9.5240782     23  1.200                                             
     1     -9.0304911     23  1.520                                             
     1      8.1634956     23  1.520                                             
     2     -9.5240782      7  1.500                                             
  local pseudopotential read in
  partial core-charges read in
  partial kinetic energy density read in
  kinetic energy density of atom read in
  atomic valenz-charges read in
  non local Contribution for L=           0  read in
    real space projection operators read in
  non local Contribution for L=           0  read in
    real space projection operators read in
  non local Contribution for L=           1  read in
    real space projection operators read in
  non local Contribution for L=           1  read in
    real space projection operators read in
    PAW grid and wavefunctions read in
 
   number of l-projection  operators is LMAX  =           4
   number of lm-projection operators is LMMAX =           8
 
 POTCAR:    PAW_PBE Pd 04Jan2005                  
   VRHFIN =Pd : s1 d9                                                           
   LEXCH  = PE                                                                  
   EATOM  =   809.7530 eV,   59.5152 Ry                                         
                                                                                
   TITEL  = PAW_PBE Pd 04Jan2005                                                
   LULTRA =        F    use ultrasoft PP ?                                      
   IUNSCR =        1    unscreen: 0-lin 1-nonlin 2-no                           
   RPACOR =    2.000    partial core radius                                     
   POMASS =  106.420; ZVAL   =   10.000    mass and valenz                      
   RCORE  =    2.600    outmost cutoff radius                                   
   RWIGS  =    2.710; RWIGS  =    1.434    wigner-seitz radius (au A)           
   ENMAX  =  250.925; ENMIN  =  188.194 eV                                      
   ICORE  =        3    local potential                                         
   LCOR   =        T    correct aug charges                                     
   LPAW   =        T    paw PP                                                  
   EAUG   =  416.230                                                            
   DEXC   =    0.000                                                            
   RMAX   =    2.653    core radius for proj-oper                               
   RAUG   =    1.300    factor for augmentation sphere                          
   RDEP   =    2.734    radius for radial grids                                 
   RDEPT  =    2.103    core radius for aug-charge                              
                                                                                
   Atomic configuration                                                         
   12 entries                                                                   
     n  l   j            E        occ.                                          
     1  0  0.50    -24164.6631   2.0000                                         
     2  0  0.50     -3530.9218   2.0000                                         
     2  1  1.50     -3165.6822   6.0000                                         
     3  0  0.50      -639.4577   2.0000                                         
     3  1  1.50      -519.4532   6.0000                                         
     3  2  2.50      -328.9757  10.0000                                         
     4  0  0.50       -88.7014   2.0000                                         
     4  1  1.50       -54.4540   6.0000                                         
     4  2  2.50        -6.6878   9.0000                                         
     5  0  0.50        -4.3543   1.0000                                         
     5  1  0.50        -1.3606   0.0000                                         
     4  3  2.50        -1.3606   0.0000                                         
   Description                                                                  
     l       E           TYP  RCUT    TYP  RCUT                                 
     2     -6.6878251     23  2.400                                             
     2     -8.0484077     23  2.400                                             
     0     -4.3542939     23  2.400                                             
     0      4.3406793     23  2.400                                             
     1     -4.0817478     23  2.600                                             
     1     15.8380318     23  2.600                                             
     3     -4.0817478     23  2.400                                             
  local pseudopotential read in
  partial core-charges read in
  partial kinetic energy density read in
  atomic valenz-charges read in
  non local Contribution for L=           2  read in
    real space projection operators read in
  non local Contribution for L=           2  read in
    real space projection operators read in
  non local Contribution for L=           0  read in
    real space projection operators read in
  non local Contribution for L=           0  read in
    real space projection operators read in
  non local Contribution for L=           1  read in
    real space projection operators read in
  non local Contribution for L=           1  read in
    real space projection operators read in
    PAW grid and wavefunctions read in
 
   number of l-projection  operators is LMAX  =           6
   number of lm-projection operators is LMMAX =          18
 
 Optimization of the real space projectors (new method)

 maximal supplied QI-value         = 34.20
 optimisation between [QCUT,QGAM] = [  9.92, 20.18] = [ 27.55,114.04] Ry 
 Optimized for a Real-space Cutoff    1.34 Angstroem

   l    n(q)    QCUT    max X(q) W(low)/X(q) W(high)/X(q)  e(spline) 
   0      8     9.919    19.460    0.16E-03    0.20E-03    0.36E-06
   0      8     9.919    12.209    0.16E-03    0.20E-03    0.35E-06
   1      8     9.919     4.655    0.19E-03    0.46E-03    0.40E-06
 Optimization of the real space projectors (new method)

 maximal supplied QI-value         = 25.13
 optimisation between [QCUT,QGAM] = [ 10.05, 20.36] = [ 28.30,116.06] Ry 
 Optimized for a Real-space Cutoff    1.70 Angstroem

   l    n(q)    QCUT    max X(q) W(low)/X(q) W(high)/X(q)  e(spline) 
   0     10    10.053    79.467    0.61E-04    0.98E-04    0.61E-06
   0     10    10.053    66.151    0.60E-04    0.98E-04    0.61E-06
   1     10    10.053     8.350    0.17E-03    0.71E-03    0.45E-05
   1     10    10.053     5.531    0.18E-03    0.77E-03    0.49E-05
 Optimization of the real space projectors (new method)

 maximal supplied QI-value         = 24.76
 optimisation between [QCUT,QGAM] = [ 10.15, 20.30] = [ 28.85,115.39] Ry 
 Optimized for a Real-space Cutoff    1.51 Angstroem

   l    n(q)    QCUT    max X(q) W(low)/X(q) W(high)/X(q)  e(spline) 
   0      9    10.150    20.381    0.17E-03    0.18E-03    0.41E-06
   0      9    10.150    15.268    0.18E-03    0.20E-03    0.43E-06
   1      9    10.150     5.964    0.16E-03    0.20E-03    0.36E-06
   1      9    10.150     5.382    0.13E-03    0.16E-03    0.33E-06
 Optimization of the real space projectors (new method)

 maximal supplied QI-value         = 14.36
 optimisation between [QCUT,QGAM] = [ 10.20, 20.39] = [ 29.12,116.47] Ry 
 Optimized for a Real-space Cutoff    1.55 Angstroem

   l    n(q)    QCUT    max X(q) W(low)/X(q) W(high)/X(q)  e(spline) 
   2      9    10.197    59.108    0.12E-03    0.40E-04    0.11E-06
   2      9    10.197    58.101    0.12E-03    0.39E-04    0.12E-06
   0      9    10.197   102.235    0.41E-04    0.86E-05    0.83E-07
   0      9    10.197    58.388    0.37E-04    0.79E-05    0.78E-07
   1      9    10.197    22.191    0.25E-03    0.13E-03    0.84E-07
   1      9    10.197    15.590    0.21E-03    0.11E-03    0.74E-07
  PAW_PBE H 15Jun2001                   :
 energy of atom  1       EATOM=  -12.4884
 kinetic energy error for atom=    0.0098 (will be added to EATOM!!)
  PAW_PBE N 08Apr2002                   :
 energy of atom  2       EATOM= -264.5486
 kinetic energy error for atom=    0.0736 (will be added to EATOM!!)
  PAW_PBE O 08Apr2002                   :
 energy of atom  3       EATOM= -432.3788
 kinetic energy error for atom=    0.1156 (will be added to EATOM!!)
  PAW_PBE Pd 04Jan2005                  :
 energy of atom  4       EATOM= -809.7530
 kinetic energy error for atom=    0.0091 (will be added to EATOM!!)
 
 
 POSCAR: H N O Pd                                
  positions in direct lattice
  velocities in cartesian coordinates
 exchange correlation table for  LEXCH =        8
   RHO(1)=    0.500       N(1)  =     2000
   RHO(2)=  100.500       N(2)  =     4000
 


--------------------------------------------------------------------------------------------------------


 ion  position               nearest neighbor table
   1  0.366  0.639  0.611-  62 1.82  66 1.95  61 2.00  65 2.13
   2  0.446  0.566  0.688-   6 0.98
   3  0.468  0.426  0.690-   6 0.98
   4  0.375  0.244  0.646-   5 1.21  60 1.95  64 1.95
   5  0.377  0.272  0.685-   4 1.21
   6  0.505  0.503  0.681-   2 0.98   3 0.98  65 2.37
   7  0.125  0.125  0.403-   8 2.75  11 2.75  10 2.75  19 2.75  23 2.75  27 2.75  24 2.76  28 2.77

   8  0.125  0.375  0.403-   7 2.75   9 2.75  12 2.75  20 2.75  25 2.75  29 2.75  24 2.76  28 2.76

   9  0.125  0.625  0.403-   8 2.75  10 2.75  13 2.75  21 2.75  30 2.75  25 2.75  26 2.75  29 2.76

  10  0.125  0.875  0.403-   9 2.75  14 2.75   7 2.75  22 2.75  30 2.75  23 2.75  26 2.75  27 2.75

  11  0.375  0.125  0.403-   7 2.75  12 2.75  15 2.75  14 2.75  31 2.75  27 2.75  32 2.76  28 2.76

  12  0.375  0.375  0.403-   8 2.75  11 2.75  13 2.75  16 2.75  33 2.75  29 2.75  32 2.76  28 2.76

  13  0.375  0.625  0.403-   9 2.75  12 2.75  14 2.75  17 2.75  34 2.75  30 2.75  33 2.76  29 2.76

  14  0.375  0.875  0.403-  10 2.75  13 2.75  18 2.75  11 2.75  30 2.75  34 2.75  31 2.76  27 2.76

  15  0.625  0.125  0.403-  11 2.75  16 2.75  19 2.75  18 2.75  35 2.75  31 2.75  36 2.76  32 2.77

  16  0.625  0.375  0.403-  12 2.75  15 2.75  17 2.75  20 2.75  33 2.75  37 2.75  36 2.76  32 2.76

  17  0.625  0.625  0.403-  13 2.75  16 2.75  18 2.75  21 2.75  38 2.75  34 2.75  33 2.75  37 2.76

  18  0.625  0.875  0.403-  14 2.75  17 2.75  22 2.75  15 2.75  35 2.75  38 2.75  31 2.75  34 2.76

  19  0.875  0.125  0.403-  23 2.74  20 2.75  15 2.75  22 2.75   7 2.75  35 2.75  24 2.76  36 2.77

  20  0.875  0.375  0.403-  16 2.75  19 2.75  21 2.75   8 2.75  25 2.75  37 2.75  24 2.76  36 2.77

  21  0.875  0.625  0.403-  17 2.75  20 2.75  22 2.75   9 2.75  26 2.75  38 2.75  25 2.76  37 2.76

  22  0.875  0.875  0.403-  18 2.75  21 2.75  19 2.75  10 2.75  23 2.75  35 2.75  26 2.75  38 2.76

  23  1.000  0.000  0.468-  24 2.74  35 2.74  19 2.74  27 2.74   7 2.75  22 2.75  51 2.75  26 2.75
                            10 2.75  54 2.75  42 2.75  39 2.78
  24  0.001  0.250  0.468-  25 2.74  23 2.74  28 2.74  52 2.75  51 2.75  39 2.75   8 2.76   7 2.76
                            36 2.76  20 2.76  19 2.76  40 2.77
  25  0.000  0.500  0.468-  24 2.74  29 2.74  41 2.75   8 2.75  37 2.75  52 2.75  20 2.75  26 2.75
                            53 2.75   9 2.75  21 2.76  40 2.79
  26  1.000  0.750  0.468-  41 2.74  54 2.74  30 2.74  42 2.75  53 2.75  38 2.75  23 2.75  25 2.75
                            22 2.75  21 2.75  10 2.75   9 2.75
  27  0.249  0.001  0.468-  46 2.74  28 2.74  23 2.74   7 2.75  42 2.75  11 2.75  31 2.75  30 2.75
                            10 2.75  14 2.76  39 2.76  43 2.77
  28  0.250  0.250  0.468-  29 2.74  32 2.74  27 2.74  24 2.74  43 2.75  39 2.75  40 2.75  12 2.76
                            11 2.76   8 2.76  44 2.76   7 2.77
  29  0.250  0.499  0.468-  28 2.74  45 2.74  25 2.74  41 2.75  33 2.75  30 2.75   8 2.75  12 2.75
                             9 2.76  13 2.76  44 2.77  40 2.77
  30  0.250  0.750  0.468-  46 2.74  26 2.74  34 2.75  41 2.75  45 2.75   9 2.75  29 2.75  42 2.75
                            10 2.75  13 2.75  14 2.75  27 2.75
  31  0.500  0.001  0.468-  32 2.74  35 2.74  46 2.75  50 2.75  15 2.75  11 2.75  27 2.75  18 2.75
                            34 2.76  14 2.76  47 2.76  43 2.77
  32  0.500  0.250  0.468-  33 2.73  28 2.74  36 2.74  31 2.74  47 2.75  43 2.75  44 2.76  12 2.76
                            48 2.76  11 2.76  16 2.76  15 2.77
  33  0.500  0.499  0.468-  32 2.73  45 2.74  37 2.74  49 2.75  16 2.75  29 2.75  34 2.75  12 2.75
                            17 2.75  13 2.76  44 2.76  48 2.77
  34  0.500  0.750  0.468-  45 2.74  38 2.74  50 2.74  30 2.75  46 2.75  33 2.75  13 2.75  17 2.75
                            14 2.75  31 2.76  18 2.76  49 2.76
  35  0.750  0.000  0.468-  23 2.74  31 2.74  36 2.74  54 2.75  15 2.75  19 2.75  18 2.75  22 2.75
                            51 2.75  38 2.75  50 2.75  47 2.78
  36  0.749  0.250  0.468-  37 2.74  32 2.74  51 2.74  35 2.74  52 2.75  47 2.75  16 2.76  15 2.76
                            24 2.76  20 2.77  19 2.77  48 2.78
  37  0.750  0.499  0.468-  36 2.74  33 2.74  49 2.75  52 2.75  53 2.75  25 2.75  16 2.75  38 2.75
                            20 2.75  17 2.76  21 2.76  48 2.79
  38  0.750  0.750  0.468-  34 2.74  54 2.74  50 2.74  53 2.75  26 2.75  35 2.75  37 2.75  17 2.75
                            18 2.75  21 2.75  22 2.76  49 2.76
  39  0.125  0.126  0.534-  40 2.72  43 2.74  59 2.74  51 2.75  28 2.75  24 2.75  42 2.75  56 2.75
                            55 2.76  27 2.76  23 2.78  60 2.80
  40  0.127  0.374  0.534-  39 2.72  44 2.74  57 2.75  28 2.75  61 2.75  41 2.75  56 2.75  52 2.76
                            60 2.76  29 2.77  24 2.77  25 2.79
  41  0.124  0.625  0.533-  53 2.74  26 2.74  25 2.75  30 2.75  29 2.75  42 2.75  61 2.75  40 2.75
                            57 2.76  45 2.76  58 2.76  62 2.78
  42  0.125  0.875  0.533-  59 2.74  46 2.74  54 2.75  26 2.75  27 2.75  41 2.75  30 2.75  23 2.75
                            39 2.75  58 2.76  55 2.76  62 2.76
  43  0.375  0.126  0.534-  39 2.74  44 2.74  47 2.74  28 2.75  46 2.75  32 2.75  59 2.76  63 2.76
                            27 2.77  31 2.77  64 2.84  60 2.86
  44  0.376  0.376  0.534-  48 2.72  45 2.73  40 2.74  43 2.74  32 2.76  33 2.76  28 2.76  61 2.77
                            29 2.77  65 2.83  64 2.84  60 2.85
  45  0.376  0.624  0.532-  44 2.73  49 2.73  34 2.74  33 2.74  29 2.74  30 2.75  61 2.76  46 2.76
                            41 2.76  66 2.77  62 2.81  65 2.83
  46  0.374  0.876  0.532-  27 2.74  42 2.74  30 2.74  31 2.75  34 2.75  50 2.75  63 2.75  43 2.75
                            59 2.75  45 2.76  66 2.76  62 2.78
  47  0.624  0.126  0.534-  48 2.73  43 2.74  63 2.75  32 2.75  36 2.75  51 2.75  68 2.75  67 2.75
                            50 2.76  31 2.76  35 2.78  64 2.78
  48  0.623  0.375  0.535-  44 2.72  47 2.73  49 2.73  68 2.75  69 2.75  32 2.76  64 2.77  52 2.77
                            33 2.77  36 2.78  37 2.79  65 2.80
  49  0.625  0.623  0.533-  48 2.73  45 2.73  33 2.75  37 2.75  53 2.75  70 2.75  38 2.76  34 2.76
                            50 2.76  69 2.76  66 2.78  65 2.79
  50  0.625  0.875  0.533-  63 2.74  34 2.74  38 2.74  54 2.75  31 2.75  46 2.75  70 2.75  35 2.75
                            47 2.76  66 2.76  67 2.76  49 2.76
  51  0.875  0.125  0.533-  54 2.74  36 2.74  24 2.75  52 2.75  23 2.75  35 2.75  39 2.75  47 2.75
                            55 2.75  68 2.76  56 2.76  67 2.76
  52  0.875  0.375  0.533-  69 2.74  53 2.74  24 2.75  36 2.75  51 2.75  37 2.75  25 2.75  56 2.75
                            40 2.76  68 2.76  57 2.77  48 2.77
  53  0.875  0.625  0.533-  41 2.74  69 2.74  52 2.74  49 2.75  38 2.75  26 2.75  54 2.75  37 2.75
                            58 2.75  25 2.75  70 2.76  57 2.76
  54  0.875  0.875  0.533-  51 2.74  38 2.74  26 2.74  42 2.75  50 2.75  35 2.75  53 2.75  58 2.75
                            23 2.75  67 2.75  55 2.76  70 2.76
  55  0.999  1.000  0.598-  67 2.73  58 2.74  59 2.75  56 2.75  51 2.75  39 2.76  54 2.76  42 2.76

  56  0.998  0.250  0.599-  68 2.71  60 2.71  55 2.75  52 2.75  57 2.75  40 2.75  39 2.75  51 2.76

  57  1.000  0.501  0.598-  69 2.71  58 2.74  61 2.75  40 2.75  56 2.75  41 2.76  53 2.76  52 2.77

  58  0.999  0.750  0.598-  55 2.74  70 2.74  57 2.74  62 2.74  54 2.75  53 2.75  42 2.76  41 2.76

  59  0.249  0.998  0.598-  62 2.71  42 2.74  39 2.74  55 2.75  46 2.75  43 2.76  63 2.76  60 2.79

  60  0.244  0.252  0.602-   4 1.95  56 2.71  40 2.76  61 2.77  59 2.79  39 2.80  44 2.85  64 2.86
                            43 2.86
  61  0.250  0.504  0.599-   1 2.00  62 2.72  57 2.75  41 2.75  40 2.75  45 2.76  44 2.77  65 2.77
                            60 2.77
  62  0.248  0.752  0.599-   1 1.82  59 2.71  61 2.72  58 2.74  66 2.75  42 2.76  41 2.78  46 2.78
                            45 2.81
  63  0.500  0.998  0.598-  66 2.70  50 2.74  67 2.75  47 2.75  46 2.75  43 2.76  59 2.76  64 2.76

  64  0.505  0.249  0.602-   4 1.95  68 2.71  63 2.76  48 2.77  47 2.78  65 2.79  43 2.84  44 2.84
                            60 2.86
  65  0.502  0.503  0.602-   1 2.13   6 2.37  66 2.73  69 2.76  61 2.77  49 2.79  64 2.79  48 2.80
                            45 2.83  44 2.83
  66  0.499  0.751  0.598-   1 1.95  63 2.70  65 2.73  70 2.75  62 2.75  50 2.76  46 2.76  45 2.77
                            49 2.78
  67  0.750  0.999  0.598-  55 2.73  70 2.74  63 2.75  68 2.75  54 2.75  47 2.75  51 2.76  50 2.76

  68  0.752  0.249  0.599-  56 2.71  64 2.71  67 2.75  48 2.75  69 2.75  47 2.75  51 2.76  52 2.76

  69  0.753  0.500  0.598-  57 2.71  53 2.74  52 2.74  70 2.75  48 2.75  68 2.75  65 2.76  49 2.76

  70  0.749  0.750  0.598-  67 2.74  58 2.74  69 2.75  66 2.75  50 2.75  49 2.75  53 2.76  54 2.76

 
  LATTYP: Found a simple tetragonal cell.
 ALAT       =    10.9820000000
 C/A-ratio  =     2.7317428519
  
  Lattice vectors:
  
 A1 = (  10.9820000000,   0.0000000000,   0.0000000000)
 A2 = (   0.0000000000,  10.9820000000,   0.0000000000)
 A3 = (   0.0000000000,   0.0000000000,  30.0000000000)


Analysis of symmetry for initial positions (statically):
=====================================================================
 Subroutine PRICEL returns:
 Original cell was already a primitive cell.
 

 Routine SETGRP: Setting up the symmetry group for a 
 simple tetragonal supercell.


 Subroutine GETGRP returns: Found  1 space group operations
 (whereof  1 operations were pure point group operations)
 out of a pool of 16 trial point group operations.


The static configuration has the point symmetry C_1 .


Analysis of symmetry for dynamics (positions and initial velocities):
=====================================================================
 Subroutine PRICEL returns:
 Original cell was already a primitive cell.
 

 Routine SETGRP: Setting up the symmetry group for a 
 simple tetragonal supercell.


 Subroutine GETGRP returns: Found  1 space group operations
 (whereof  1 operations were pure point group operations)
 out of a pool of 16 trial point group operations.


The dynamic configuration has the point symmetry C_1 .


Analysis of constrained symmetry for selective dynamics:
=====================================================================
 Subroutine PRICEL returns:
 Original cell was already a primitive cell.
 

 Routine SETGRP: Setting up the symmetry group for a 
 simple tetragonal supercell.


 Subroutine GETGRP returns: Found  1 space group operations
 (whereof  1 operations were pure point group operations)
 out of a pool of 16 trial point group operations.


The constrained configuration has the point symmetry C_1 .


Analysis of structural, dynamic, and magnetic symmetry:
=====================================================================
 Subroutine PRICEL returns:
 Original cell was already a primitive cell.
 

 Routine SETGRP: Setting up the symmetry group for a 
 simple tetragonal supercell.


 Subroutine GETGRP returns: Found  1 space group operations
 (whereof  1 operations were pure point group operations)
 out of a pool of 16 trial point group operations.


The magnetic configuration has the point symmetry C_1 .


 Subroutine INISYM returns: Found  1 space group operations
 (whereof  1 operations are pure point group operations),
 and found     1 'primitive' translations

 
 
 KPOINTS: K-Point Grid                            

Automatic generation of k-mesh.
Space group operators:
 irot       det(A)        alpha          n_x          n_y          n_z        tau_x        tau_y        tau_z
    1     1.000000     0.000001     1.000000     0.000000     0.000000     0.000000     0.000000     0.000000
 
 Subroutine IBZKPT returns following result:
 ===========================================
 
 Found      8 irreducible k-points:
 
 Following reciprocal coordinates:
            Coordinates               Weight
  0.125000  0.125000  0.000000      2.000000
  0.375000  0.125000  0.000000      2.000000
 -0.375000  0.125000  0.000000      2.000000
 -0.125000  0.125000  0.000000      2.000000
  0.125000  0.375000  0.000000      2.000000
  0.375000  0.375000  0.000000      2.000000
 -0.375000  0.375000  0.000000      2.000000
 -0.125000  0.375000  0.000000      2.000000
 
 Following cartesian coordinates:
            Coordinates               Weight
  0.011382  0.011382  0.000000      2.000000
  0.034147  0.011382  0.000000      2.000000
 -0.034147  0.011382  0.000000      2.000000
 -0.011382  0.011382  0.000000      2.000000
  0.011382  0.034147  0.000000      2.000000
  0.034147  0.034147  0.000000      2.000000
 -0.034147  0.034147  0.000000      2.000000
 -0.011382  0.034147  0.000000      2.000000
 


--------------------------------------------------------------------------------------------------------




 Dimension of arrays:
   k-points           NKPTS =      8   k-points in BZ     NKDIM =      8   number of bands    NBANDS=    576
   number of dos      NEDOS =   1200   number of ions     NIONS =     70
   non local maximal  LDIM  =      6   non local SUM 2l+1 LMDIM =     18
   total plane-waves  NPLWV = ******
   max r-space proj   IRMAX =   5807   max aug-charges    IRDMAX=  13820
   dimension x,y,z NGX =    72 NGY =   72 NGZ =  196
   dimension x,y,z NGXF=   144 NGYF=  144 NGZF=  392
   support grid    NGXF=   144 NGYF=  144 NGZF=  392
   ions per type =               3   1   2  64
   NGX,Y,Z   is equivalent  to a cutoff of  10.90, 10.90, 10.86 a.u.
   NGXF,Y,Z  is equivalent  to a cutoff of  21.80, 21.80, 21.72 a.u.

 SYSTEM =  Pd_100_surface                          
 POSCAR =  H N O Pd                                

 Startparameter for this run:
   NWRITE =      2    write-flag & timer
   PREC   = accura    normal or accurate (medium, high low for compatibility)
   ISTART =      0    job   : 0-new  1-cont  2-samecut
   ICHARG =      2    charge: 1-file 2-atom 10-const
   ISPIN  =      2    spin polarized calculation?
   LNONCOLLINEAR =      F non collinear calculations
   LSORBIT =      F    spin-orbit coupling
   INIWAV =      1    electr: 0-lowe 1-rand  2-diag
   LASPH  =      F    aspherical Exc in radial PAW
   METAGGA=      F    non-selfconsistent MetaGGA calc.

 Electronic Relaxation 1
   ENCUT  =  400.0 eV  29.40 Ry    5.42 a.u.  17.91 17.91 48.92*2*pi/ulx,y,z
   ENINI  =  400.0     initial cutoff
   ENAUG  =  627.1 eV  augmentation charge cutoff
   NELM   =    100;   NELMIN=  2; NELMDL= -5     # of ELM steps 
   EDIFF  = 0.1E-04   stopping-criterion for ELM
   LREAL  =      T    real-space projection
   NLSPLINE    = F    spline interpolate recip. space projectors
   LCOMPAT=      F    compatible to vasp.4.4
   GGA_COMPAT  = T    GGA compatible to vasp.4.4-vasp.4.6
   LMAXPAW     = -100 max onsite density
   LMAXMIX     =    2 max onsite mixed and CHGCAR
   VOSKOWN=      0    Vosko Wilk Nusair interpolation
   ROPT   =   -0.00025  -0.00025  -0.00025  -0.00025
 Ionic relaxation
   EDIFFG = -.2E-01   stopping-criterion for IOM
   NSW    =    300    number of steps for IOM
   NBLOCK =      1;   KBLOCK =    300    inner block; outer block 
   IBRION =      2    ionic relax: 0-MD 1-quasi-New 2-CG
   NFREE  =      1    steps in history (QN), initial steepest desc. (CG)
   ISIF   =      2    stress and relaxation
   IWAVPR =     11    prediction:  0-non 1-charg 2-wave 3-comb
   ISYM   =      2    0-nonsym 1-usesym 2-fastsym
   LCORR  =      T    Harris-Foulkes like correction to forces

   POTIM  = 0.5000    time-step for ionic-motion
   TEIN   =    0.0    initial temperature
   TEBEG  =    0.0;   TEEND  =   0.0 temperature during run
   SMASS  =  -3.00    Nose mass-parameter (am)
   estimated Nose-frequenzy (Omega)   =  0.10E-29 period in steps =****** mass=  -0.276E-26a.u.
   SCALEE = 1.0000    scale energy and forces
   NPACO  =    256;   APACO  = 16.0  distance and # of slots for P.C.
   PSTRESS=    0.0 pullay stress

  Mass of Ions in am
   POMASS =   1.00 14.00 16.00106.42
  Ionic Valenz
   ZVAL   =   1.00  5.00  6.00 10.00
  Atomic Wigner-Seitz radii
   RWIGS  =  -1.00 -1.00 -1.00 -1.00
  virtual crystal weights 
   VCA    =   1.00  1.00  1.00  1.00
   NELECT =     660.0000    total number of electrons
   NUPDOWN=      -1.0000    fix difference up-down

 DOS related values:
   EMIN   =  10.00;   EMAX   =-10.00  energy-range for DOS
   EFERMI =   0.00
   ISMEAR =     1;   SIGMA  =   0.20  broadening in eV -4-tet -1-fermi 0-gaus

 Electronic relaxation 2 (details)
   IALGO  =     68    algorithm
   LDIAG  =      T    sub-space diagonalisation (order eigenvalues)
   LSUBROT=      F    optimize rotation matrix (better conditioning)
   TURBO    =      0    0=normal 1=particle mesh
   IRESTART =      0    0=no restart 2=restart with 2 vectors
   NREBOOT  =      0    no. of reboots
   NMIN     =      0    reboot dimension
   EREF     =   0.00    reference energy to select bands
   IMIX   =      4    mixing-type and parameters
     AMIX     =   0.40;   BMIX     =  1.00
     AMIX_MAG =   1.60;   BMIX_MAG =  1.00
     AMIN     =   0.10
     WC   =   100.;   INIMIX=   1;  MIXPRE=   1;  MAXMIX= -45

 Intra band minimization:
   WEIMIN = 0.0010     energy-eigenvalue tresh-hold
   EBREAK =  0.43E-08  absolut break condition
   DEPER  =   0.30     relativ break condition  

   TIME   =   0.40     timestep for ELM

  volume/ion in A,a.u.               =      51.69       348.80
  Fermi-wavevector in a.u.,A,eV,Ry     =   0.928456  1.754528 11.728643  0.862031
  Thomas-Fermi vector in A             =   2.054635
 
 Write flags
   LWAVE        =      F    write WAVECAR
   LDOWNSAMPLE  =      F    k-point downsampling of WAVECAR
   LCHARG       =      F    write CHGCAR
   LVTOT        =      F    write LOCPOT, total local potential
   LVHAR        =      F    write LOCPOT, Hartree potential only
   LELF         =      F    write electronic localiz. function (ELF)
   LORBIT       =     11    0 simple, 1 ext, 2 COOP (PROOUT), +10 PAW based schemes


 Dipole corrections
   LMONO  =      F    monopole corrections only (constant potential shift)
   LDIPOL =      T    correct potential (dipole corrections)
   IDIPOL =      3    1-x, 2-y, 3-z, 4-all directions 
   EPSILON=  1.0000000 bulk dielectric constant

 Exchange correlation treatment:
   GGA     =    --    GGA type
   LEXCH   =     8    internal setting for exchange type
   VOSKOWN=      0    Vosko Wilk Nusair interpolation
   LHFCALC =     F    Hartree Fock is set to
   LHFONE  =     F    Hartree Fock one center treatment
   AEXX    =    0.0000 exact exchange contribution

 Linear response parameters
   LEPSILON=     F    determine dielectric tensor
   LRPA    =     F    only Hartree local field effects (RPA)
   LNABLA  =     F    use nabla operator in PAW spheres
   LVEL    =     F    velocity operator in full k-point grid
   LINTERFAST=   F  fast interpolation
   KINTER  =     0    interpolate to denser k-point grid
   CSHIFT  =0.1000    complex shift for real part using Kramers Kronig
   OMEGAMAX=  -1.0    maximum frequency
   DEG_THRESHOLD= 0.2000000E-02 threshold for treating states as degnerate
   RTIME   =   -0.100 relaxation time in fs
  (WPLASMAI=    0.000 imaginary part of plasma frequency in eV, 0.658/RTIME)
   DFIELD  = 0.0000000 0.0000000 0.0000000 field for delta impulse in time
 
 Orbital magnetization related:
   ORBITALMAG=     F  switch on orbital magnetization
   LCHIMAG   =     F  perturbation theory with respect to B field
   DQ        =  0.001000  dq finite difference perturbation B field
   LLRAUG    =     F  two centre corrections for induced B field



--------------------------------------------------------------------------------------------------------


 conjugate gradient relaxation of ions
   using selective dynamics as specified on POSCAR
 charge density and potential will be updated during run
 spin polarized calculation
 RMM-DIIS sequential band-by-band and
  variant of blocked Davidson during initial phase
 perform sub-space diagonalisation
    before iterative eigenvector-optimisation
 modified Broyden-mixing scheme, WC =      100.0
 initial mixing is a Kerker type mixing with AMIX =  0.4000 and BMIX =      1.0000
 Hartree-type preconditioning will be used
 using additional bands          246
 real space projection scheme for non local part
 use partial core corrections
 calculate Harris-corrections to forces 
   (improved forces if not selfconsistent)
 use gradient corrections 
 use of overlap-Matrix (Vanderbilt PP)
 Methfessel and Paxton  Order N= 1 SIGMA  =   0.20


--------------------------------------------------------------------------------------------------------


  energy-cutoff  :      400.00
  volume of cell :     3618.13
      direct lattice vectors                 reciprocal lattice vectors
    10.982000000  0.000000000  0.000000000     0.091058095  0.000000000  0.000000000
     0.000000000 10.982000000  0.000000000     0.000000000  0.091058095  0.000000000
     0.000000000  0.000000000 30.000000000     0.000000000  0.000000000  0.033333333

  length of vectors
    10.982000000 10.982000000 30.000000000     0.091058095  0.091058095  0.033333333


 
 k-points in units of 2pi/SCALE and weight: K-Point Grid                            
   0.01138226  0.01138226  0.00000000       0.125
   0.03414679  0.01138226  0.00000000       0.125
  -0.03414679  0.01138226  0.00000000       0.125
  -0.01138226  0.01138226  0.00000000       0.125
   0.01138226  0.03414679  0.00000000       0.125
   0.03414679  0.03414679  0.00000000       0.125
  -0.03414679  0.03414679  0.00000000       0.125
  -0.01138226  0.03414679  0.00000000       0.125
 
 k-points in reciprocal lattice and weights: K-Point Grid                            
   0.12500000  0.12500000  0.00000000       0.125
   0.37500000  0.12500000  0.00000000       0.125
  -0.37500000  0.12500000  0.00000000       0.125
  -0.12500000  0.12500000  0.00000000       0.125
   0.12500000  0.37500000  0.00000000       0.125
   0.37500000  0.37500000  0.00000000       0.125
  -0.37500000  0.37500000  0.00000000       0.125
  -0.12500000  0.37500000  0.00000000       0.125
 
 position of ions in fractional coordinates (direct lattice) 
   0.36608303  0.63936261  0.61084910
   0.44555306  0.56570982  0.68810924
   0.46763939  0.42570931  0.69028733
   0.37470428  0.24441011  0.64591165
   0.37652177  0.27159681  0.68509793
   0.50481737  0.50272434  0.68060617
   0.12499955  0.12499955  0.40293227
   0.12499955  0.37499864  0.40293227
   0.12499955  0.62499774  0.40293227
   0.12499955  0.87499683  0.40293227
   0.37499864  0.12499955  0.40293227
   0.37499864  0.37499864  0.40293227
   0.37499864  0.62499774  0.40293227
   0.37499864  0.87499683  0.40293227
   0.62499774  0.12499955  0.40293227
   0.62499774  0.37499864  0.40293227
   0.62499774  0.62499774  0.40293227
   0.62499774  0.87499683  0.40293227
   0.87499683  0.12499955  0.40293227
   0.87499683  0.37499864  0.40293227
   0.87499683  0.62499774  0.40293227
   0.87499683  0.87499683  0.40293227
   0.99966371  0.00044329  0.46772180
   0.00059191  0.25006965  0.46831671
   0.00015667  0.49950396  0.46792322
   0.99982674  0.75006199  0.46801897
   0.24945515  0.00071467  0.46803354
   0.25030568  0.25026221  0.46849899
   0.24999352  0.49938236  0.46813677
   0.24977949  0.74989864  0.46795315
   0.50023781  0.00060766  0.46795446
   0.49964700  0.25032217  0.46846605
   0.50037509  0.49925250  0.46797551
   0.49985892  0.74969175  0.46802782
   0.74998311  0.00019788  0.46778738
   0.74927111  0.25003922  0.46842459
   0.74980670  0.49934397  0.46807943
   0.74964332  0.74978657  0.46804529
   0.12525868  0.12611935  0.53371877
   0.12653494  0.37419704  0.53418040
   0.12441135  0.62494234  0.53271262
   0.12460468  0.87533665  0.53277629
   0.37462286  0.12601110  0.53357304
   0.37580189  0.37560222  0.53389722
   0.37583184  0.62429698  0.53245068
   0.37437387  0.87561994  0.53247220
   0.62427985  0.12592813  0.53364053
   0.62314391  0.37457430  0.53453808
   0.62480505  0.62349746  0.53305088
   0.62463257  0.87488214  0.53269046
   0.87486063  0.12485426  0.53281911
   0.87516619  0.37499359  0.53295232
   0.87491044  0.62484308  0.53277420
   0.87462876  0.87510035  0.53262655
   0.99883385  0.99967384  0.59813740
   0.99798381  0.24992677  0.59856476
   0.99998430  0.50067673  0.59846416
   0.99867454  0.75045663  0.59789005
   0.24903236  0.99823995  0.59791876
   0.24432480  0.25162097  0.60209392
   0.24994101  0.50368205  0.59851035
   0.24846820  0.75161297  0.59878810
   0.50025225  0.99763965  0.59786675
   0.50452470  0.24910365  0.60169648
   0.50188357  0.50345193  0.60165837
   0.49912149  0.75140726  0.59822048
   0.75028328  0.99922564  0.59808514
   0.75151318  0.24940817  0.59858666
   0.75284604  0.50014359  0.59818362
   0.74917185  0.75010070  0.59788722
 
 position of ions in cartesian coordinates  (Angst):
   4.02032383  7.02148019 18.32547309
   4.89306369  6.21262520 20.64327714
   5.13561582  4.67513967 20.70861992
   4.11500239  2.68411185 19.37734962
   4.13496204  2.98267617 20.55293780
   5.54390440  5.52091873 20.41818496
   1.37274503  1.37274503 12.08796804
   1.37274503  4.11823509 12.08796804
   1.37274503  6.86372514 12.08796804
   1.37274503  9.60921520 12.08796804
   4.11823509  1.37274503 12.08796804
   4.11823509  4.11823509 12.08796804
   4.11823509  6.86372514 12.08796804
   4.11823509  9.60921520 12.08796804
   6.86372514  1.37274503 12.08796804
   6.86372514  4.11823509 12.08796804
   6.86372514  6.86372514 12.08796804
   6.86372514  9.60921520 12.08796804
   9.60921520  1.37274503 12.08796804
   9.60921520  4.11823509 12.08796804
   9.60921520  6.86372514 12.08796804
   9.60921520  9.60921520 12.08796804
  10.97830684  0.00486826 14.03165408
   0.00650039  2.74626491 14.04950140
   0.00172059  5.48555254 14.03769660
  10.98009723  8.23718074 14.04056902
   2.73951650  0.00784852 14.04100632
   2.74885700  2.74837964 14.05496985
   2.74542879  5.48421704 14.04410305
   2.74307838  8.23538688 14.03859444
   5.49361164  0.00667329 14.03863379
   5.48712331  2.74903812 14.05398159
   5.49511926  5.48279091 14.03926532
   5.48945070  8.23311478 14.04083446
   8.23631446  0.00217307 14.03362148
   8.22849532  2.74593071 14.05273775
   8.23437714  5.48379550 14.04238290
   8.23258289  8.23415615 14.04135875
   1.37559080  1.38504269 16.01156307
   1.38960668  4.10943189 16.02541203
   1.36628546  6.86311680 15.98137873
   1.36840860  9.61294713 15.98328871
   4.11410826  1.38385386 16.00719105
   4.12705638  4.12486362 16.01691646
   4.12738532  6.85602940 15.97352045
   4.11137380  9.61605814 15.97416608
   6.85584135  1.38294278 16.00921583
   6.84336646  4.11357500 16.03614250
   6.86160901  6.84724908 15.99152651
   6.85971487  9.60795565 15.98071387
   9.60771943  1.37114945 15.98457343
   9.61107510  4.11817962 15.98856955
   9.60826641  6.86202672 15.98322596
   9.60517305  9.61035207 15.97879639
  10.96919336 10.97841813 17.94412195
  10.95985823  2.74469582 17.95694286
  10.98182756  5.49843190 17.95392469
  10.96744379  8.24151476 17.93670165
   2.73487341 10.96267112 17.93756267
   2.68317492  2.76330147 18.06281769
   2.74485223  5.53143630 17.95531064
   2.72867774  8.25421360 17.96364296
   5.49377021 10.95607860 17.93600260
   5.54069030  2.73565631 18.05089440
   5.51168535  5.52890912 18.04975107
   5.48135219  8.25195457 17.94661430
   8.23961096 10.97349603 17.94255425
   8.25311776  2.73900048 17.95759968
   8.26775523  5.49257696 17.94550855
   8.22740523  8.23760583 17.93661671
 


--------------------------------------------------------------------------------------------------------


 k-point  1 :   0.1250 0.1250 0.0000  plane waves:   65671
 k-point  2 :   0.3750 0.1250 0.0000  plane waves:   65719
 k-point  3 :  -0.3750 0.1250 0.0000  plane waves:   65719
 k-point  4 :  -0.1250 0.1250 0.0000  plane waves:   65671
 k-point  5 :   0.1250 0.3750 0.0000  plane waves:   65719
 k-point  6 :   0.3750 0.3750 0.0000  plane waves:   65776
 k-point  7 :  -0.3750 0.3750 0.0000  plane waves:   65776
 k-point  8 :  -0.1250 0.3750 0.0000  plane waves:   65719

 maximum and minimum number of plane-waves per node :     65776    65671

 maximum number of plane-waves:     65776
 maximum index in each direction: 
   IXMAX=   18   IYMAX=   17   IZMAX=   48
   IXMIN=  -18   IYMIN=  -18   IZMIN=  -48


 serial   3D FFT for wavefunctions
 parallel 3D FFT for charge:
    minimum data exchange during FFTs selected (reduces bandwidth)


 total amount of memory used by VASP MPI-rank0   228232. kBytes
=======================================================================

   base      :      30000. kBytes
   nonlr-proj:      51566. kBytes
   fftplans  :       5987. kBytes
   grid      :      86893. kBytes
   one-center:       2177. kBytes
   wavefun   :      51609. kBytes
 
     INWAV:  cpu time    0.0001: real time    0.0003
 Broyden mixing: mesh for mixing (old mesh)
   NGX = 35   NGY = 35   NGZ = 97
  (NGX  =144   NGY  =144   NGZ  =392)
  gives a total of 118825 points

 initial charge density was supplied:
 charge density of overlapping atoms calculated
 number of electron     660.0000000 magnetization      70.0000000
 keeping initial charge density in first step


--------------------------------------------------------------------------------------------------------


 Maximum index for non-local projection operator         5572
 Maximum index for augmentation-charges          678 (set IRDMAX)


--------------------------------------------------------------------------------------------------------


 First call to EWALD:  gamma=   0.115
 Maximum number of real-space cells 4x 4x 2
 Maximum number of reciprocal cells 2x 2x 5

    FEWALD:  cpu time    0.0115: real time    0.0057


--------------------------------------- Iteration      1(   1)  ---------------------------------------


    POTLOK:  cpu time    0.5371: real time    0.3740
    SETDIJ:  cpu time    0.0482: real time    0.0274
     EDDAV:  cpu time  124.4918: real time   62.2608
       DOS:  cpu time    0.0175: real time    0.0087
    --------------------------------------------
      LOOP:  cpu time  125.0946: real time   62.6710

 eigenvalue-minimisations  : 18432
 total energy-change (2. order) : 0.3314481E+04  (-0.2473474E+05)
 number of electron     660.0000000 magnetization      70.0000000
 augmentation part      660.0000000 magnetization      70.0000000

 DIPCOR: dipole corrections for dipol
 direction  3 min pos     1,
 dipolmoment           0.000000      0.000000     -0.000154 electrons x Angstroem
 Tr[quadrupol]    -13915.989925

 energy correction for charged system         0.000000 eV
 dipol+quadrupol energy correction           -0.000000 eV
 added-field ion interaction          0.000903 eV  (added to PSCEN)


 Free energy of the ion-electron system (eV)
  ---------------------------------------------------
  alpha Z        PSCENC =       774.60485095
  Ewald energy   TEWEN  =    384445.59032920
  -Hartree energ DENC   =   -437820.00899247
  -exchange      EXHF   =         0.00000000
  -V(xc)+E(xc)   XCENC  =     -1794.76852073
  PAW double counting   =     52528.45871130   -48551.45505577
  entropy T*S    EENTRO =         0.00209897
  eigenvalues    EBANDS =       742.01077527
  atomic energy  EATOM  =     52990.04641755
  Solvation  Ediel_sol  =         0.00000000
  ---------------------------------------------------
  free energy    TOTEN  =      3314.48061428 eV

  energy without entropy =     3314.47851530  energy(sigma->0) =     3314.47991462


--------------------------------------------------------------------------------------------------------




--------------------------------------- Iteration      1(   2)  ---------------------------------------


     EDDAV:  cpu time  148.8557: real time   74.4489
       DOS:  cpu time    0.0050: real time    0.0025
    --------------------------------------------
      LOOP:  cpu time  148.8607: real time   74.4514

 eigenvalue-minimisations  : 20544
 total energy-change (2. order) :-0.3555828E+04  (-0.3382261E+04)
 number of electron     660.0000000 magnetization      70.0000000
 augmentation part      660.0000000 magnetization      70.0000000

 DIPCOR: dipole corrections for dipol
 direction  3 min pos     1,
 dipolmoment           0.000000      0.000000     -0.000154 electrons x Angstroem
 Tr[quadrupol]    -13915.989925

 energy correction for charged system         0.000000 eV
 dipol+quadrupol energy correction           -0.000000 eV
 added-field ion interaction          0.000903 eV  (added to PSCEN)


 Free energy of the ion-electron system (eV)
  ---------------------------------------------------
  alpha Z        PSCENC =       774.60485095
  Ewald energy   TEWEN  =    384445.59032920
  -Hartree energ DENC   =   -437820.00899247
  -exchange      EXHF   =         0.00000000
  -V(xc)+E(xc)   XCENC  =     -1794.76852073
  PAW double counting   =     52528.45871130   -48551.45505577
  entropy T*S    EENTRO =         0.10624439
  eigenvalues    EBANDS =     -2813.92106378
  atomic energy  EATOM  =     52990.04641755
  Solvation  Ediel_sol  =         0.00000000
  ---------------------------------------------------
  free energy    TOTEN  =      -241.34707936 eV

  energy without entropy =     -241.45332375  energy(sigma->0) =     -241.38249416


--------------------------------------------------------------------------------------------------------




--------------------------------------- Iteration      1(   3)  ---------------------------------------


     EDDAV:  cpu time  210.4172: real time  105.4762
       DOS:  cpu time    0.0055: real time    0.0028
    --------------------------------------------
      LOOP:  cpu time  210.4227: real time  105.4789

 eigenvalue-minimisations  : 24384
 total energy-change (2. order) :-0.1099281E+03  (-0.1086246E+03)
 number of electron     660.0000000 magnetization      70.0000000
 augmentation part      660.0000000 magnetization      70.0000000

 DIPCOR: dipole corrections for dipol
 direction  3 min pos     1,
 dipolmoment           0.000000      0.000000     -0.000154 electrons x Angstroem
 Tr[quadrupol]    -13915.989925

 energy correction for charged system         0.000000 eV
 dipol+quadrupol energy correction           -0.000000 eV
 added-field ion interaction          0.000903 eV  (added to PSCEN)


 Free energy of the ion-electron system (eV)
  ---------------------------------------------------
  alpha Z        PSCENC =       774.60485095
  Ewald energy   TEWEN  =    384445.59032920
  -Hartree energ DENC   =   -437820.00899247
  -exchange      EXHF   =         0.00000000
  -V(xc)+E(xc)   XCENC  =     -1794.76852073
  PAW double counting   =     52528.45871130   -48551.45505577
  entropy T*S    EENTRO =         0.14238139
  eigenvalues    EBANDS =     -2923.88527399
  atomic energy  EATOM  =     52990.04641755
  Solvation  Ediel_sol  =         0.00000000
  ---------------------------------------------------
  free energy    TOTEN  =      -351.27515257 eV

  energy without entropy =     -351.41753396  energy(sigma->0) =     -351.32261304


--------------------------------------------------------------------------------------------------------




--------------------------------------- Iteration      1(   4)  ---------------------------------------


     EDDAV:  cpu time  159.5832: real time   79.8190
       DOS:  cpu time    0.0051: real time    0.0025
    --------------------------------------------
      LOOP:  cpu time  159.5883: real time   79.8215

 eigenvalue-minimisations  : 21504
 total energy-change (2. order) :-0.1617809E+01  (-0.1617077E+01)
 number of electron     660.0000000 magnetization      70.0000000
 augmentation part      660.0000000 magnetization      70.0000000

 DIPCOR: dipole corrections for dipol
 direction  3 min pos     1,
 dipolmoment           0.000000      0.000000     -0.000154 electrons x Angstroem
 Tr[quadrupol]    -13915.989925

 energy correction for charged system         0.000000 eV
 dipol+quadrupol energy correction           -0.000000 eV
 added-field ion interaction          0.000903 eV  (added to PSCEN)


 Free energy of the ion-electron system (eV)
  ---------------------------------------------------
  alpha Z        PSCENC =       774.60485095
  Ewald energy   TEWEN  =    384445.59032920
  -Hartree energ DENC   =   -437820.00899247
  -exchange      EXHF   =         0.00000000
  -V(xc)+E(xc)   XCENC  =     -1794.76852073
  PAW double counting   =     52528.45871130   -48551.45505577
  entropy T*S    EENTRO =         0.14286895
  eigenvalues    EBANDS =     -2925.50357089
  atomic energy  EATOM  =     52990.04641755
  Solvation  Ediel_sol  =         0.00000000
  ---------------------------------------------------
  free energy    TOTEN  =      -352.89296191 eV

  energy without entropy =     -353.03583086  energy(sigma->0) =     -352.94058490


--------------------------------------------------------------------------------------------------------




--------------------------------------- Iteration      1(   5)  ---------------------------------------


     EDDAV:  cpu time  257.4235: real time  128.9900
       DOS:  cpu time    0.0051: real time    0.0026
    CHARGE:  cpu time    2.3741: real time    2.0021
    MIXING:  cpu time    0.0833: real time    0.0417
    --------------------------------------------
      LOOP:  cpu time  259.8860: real time  131.0364

 eigenvalue-minimisations  : 28416
 total energy-change (2. order) :-0.7813867E-01  (-0.7813772E-01)
 number of electron     659.9999531 magnetization      67.3858621
 augmentation part      261.1111699 magnetization      53.6490663

 DIPCOR: dipole corrections for dipol
 direction  3 min pos     1,
 dipolmoment           0.000000      0.000000     -0.000154 electrons x Angstroem
 Tr[quadrupol]    -13915.989925

 energy correction for charged system         0.000000 eV
 dipol+quadrupol energy correction           -0.000000 eV
 added-field ion interaction          0.000903 eV  (added to PSCEN)


 Broyden mixing:
  rms(total) = 0.59971E+01    rms(broyden)= 0.59963E+01
  rms(prec ) = 0.60538E+01
  weight for this iteration     100.00

 Free energy of the ion-electron system (eV)
  ---------------------------------------------------
  alpha Z        PSCENC =       774.60485095
  Ewald energy   TEWEN  =    384445.59032920
  -Hartree energ DENC   =   -437820.00899247
  -exchange      EXHF   =         0.00000000
  -V(xc)+E(xc)   XCENC  =     -1794.76852073
  PAW double counting   =     52528.45871130   -48551.45505577
  entropy T*S    EENTRO =         0.14289220
  eigenvalues    EBANDS =     -2925.58173282
  atomic energy  EATOM  =     52990.04641755
  Solvation  Ediel_sol  =         0.00000000
  ---------------------------------------------------
  free energy    TOTEN  =      -352.97110059 eV

  energy without entropy =     -353.11399279  energy(sigma->0) =     -353.01873132


--------------------------------------------------------------------------------------------------------




--------------------------------------- Iteration      1(   6)  ---------------------------------------


    POTLOK:  cpu time    0.3420: real time    0.2373
    SETDIJ:  cpu time    0.0260: real time    0.0156
    EDDIAG:  cpu time   15.3481: real time    7.6753
  RMM-DIIS:  cpu time   34.9045: real time   18.2003
    ORTHCH:  cpu time    3.9401: real time    1.9787
       DOS:  cpu time    0.0060: real time    0.0030
    CHARGE:  cpu time    2.4779: real time    2.1382
    MIXING:  cpu time    0.0115: real time    0.0058
    --------------------------------------------
      LOOP:  cpu time   57.0562: real time   30.2544

 eigenvalue-minimisations  : 18478
 total energy-change (2. order) : 0.3345224E+02  (-0.6935861E+01)
 number of electron     659.9999517 magnetization      64.3728832
 augmentation part      271.7256810 magnetization      48.7688930

 DIPCOR: dipole corrections for dipol
 direction  3 min pos     1,
 dipolmoment           0.000000      0.000000     -0.044781 electrons x Angstroem
 Tr[quadrupol]    -13921.381349

 energy correction for charged system         0.000000 eV
 dipol+quadrupol energy correction           -0.000050 eV
 added-field ion interaction          0.262715 eV  (added to PSCEN)


 Broyden mixing:
  rms(total) = 0.34459E+01    rms(broyden)= 0.34452E+01
  rms(prec ) = 0.35116E+01
  weight for this iteration     100.00

 eigenvalues of (default mixing * dielectric matrix)
  average eigenvalue GAMMA=   1.0073
  1.0073

 Free energy of the ion-electron system (eV)
  ---------------------------------------------------
  alpha Z        PSCENC =       774.86661296
  Ewald energy   TEWEN  =    384445.59032920
  -Hartree energ DENC   =   -437646.24325655
  -exchange      EXHF   =         0.00000000
  -V(xc)+E(xc)   XCENC  =     -1790.46932856
  PAW double counting   =     56432.55399356   -52532.40807280
  entropy T*S    EENTRO =         0.08383012
  eigenvalues    EBANDS =     -2993.53938824
  atomic energy  EATOM  =     52990.04641755
  Solvation  Ediel_sol  =         0.00000000
  ---------------------------------------------------
  free energy    TOTEN  =      -319.51886277 eV

  energy without entropy =     -319.60269289  energy(sigma->0) =     -319.54680614


--------------------------------------------------------------------------------------------------------




--------------------------------------- Iteration      1(   7)  ---------------------------------------


    POTLOK:  cpu time    0.3846: real time    0.2360
    SETDIJ:  cpu time    0.0254: real time    0.0156
    EDDIAG:  cpu time   15.4002: real time    7.7019
  RMM-DIIS:  cpu time   34.5940: real time   17.8999
    ORTHCH:  cpu time    3.9197: real time    1.9672
       DOS:  cpu time    0.0050: real time    0.0025
    CHARGE:  cpu time    2.8290: real time    2.4957
    MIXING:  cpu time    0.0046: real time    0.0023
    --------------------------------------------
      LOOP:  cpu time   57.1625: real time   30.3210

 eigenvalue-minimisations  : 18466
 total energy-change (2. order) :-0.1966099E+02  (-0.2461949E+01)
 number of electron     659.9999489 magnetization      62.9178552
 augmentation part      269.1457594 magnetization      50.0330592

 DIPCOR: dipole corrections for dipol
 direction  3 min pos     1,
 dipolmoment           0.000000      0.000000      0.694191 electrons x Angstroem
 Tr[quadrupol]    -13931.978447

 energy correction for charged system         0.000000 eV
 dipol+quadrupol energy correction           -0.012050 eV
 added-field ion interaction         -4.072563 eV  (added to PSCEN)


 Broyden mixing:
  rms(total) = 0.52889E+01    rms(broyden)= 0.52880E+01
  rms(prec ) = 0.63499E+01
  weight for this iteration     100.00

 eigenvalues of (default mixing * dielectric matrix)
  average eigenvalue GAMMA=   0.7679
  1.2127  0.3230

 Free energy of the ion-electron system (eV)
  ---------------------------------------------------
  alpha Z        PSCENC =       770.51933487
  Ewald energy   TEWEN  =    384445.59032920
  -Hartree energ DENC   =   -438046.41373041
  -exchange      EXHF   =         0.00000000
  -V(xc)+E(xc)   XCENC  =     -1787.44701845
  PAW double counting   =     59327.96558945   -55458.53746806
  entropy T*S    EENTRO =        -0.03055684
  eigenvalues    EBANDS =     -2580.87275387
  atomic energy  EATOM  =     52990.04641755
  Solvation  Ediel_sol  =         0.00000000
  ---------------------------------------------------
  free energy    TOTEN  =      -339.17985656 eV

  energy without entropy =     -339.14929972  energy(sigma->0) =     -339.16967095


--------------------------------------------------------------------------------------------------------




--------------------------------------- Iteration      1(   8)  ---------------------------------------


    POTLOK:  cpu time    0.3984: real time    0.2302
    SETDIJ:  cpu time    0.0313: real time    0.0214
    EDDIAG:  cpu time   15.4885: real time    7.7456
  RMM-DIIS:  cpu time   34.3196: real time   17.6613
    ORTHCH:  cpu time    3.9263: real time    1.9707
       DOS:  cpu time    0.0055: real time    0.0028
    CHARGE:  cpu time    2.7497: real time    2.4125
    MIXING:  cpu time    0.0044: real time    0.0022
    --------------------------------------------
      LOOP:  cpu time   56.9236: real time   30.0467

 eigenvalue-minimisations  : 18432
 total energy-change (2. order) :-0.2489407E+01  (-0.2620469E+01)
 number of electron     659.9999548 magnetization      60.9984972
 augmentation part      268.3084687 magnetization      45.1431220

 DIPCOR: dipole corrections for dipol
 direction  3 min pos     1,
 dipolmoment           0.000000      0.000000     -1.844794 electrons x Angstroem
 Tr[quadrupol]    -13933.458795

 energy correction for charged system         0.000000 eV
 dipol+quadrupol energy correction           -0.085103 eV
 added-field ion interaction         10.822736 eV  (added to PSCEN)


 Broyden mixing:
  rms(total) = 0.45732E+01    rms(broyden)= 0.45724E+01
  rms(prec ) = 0.59505E+01
  weight for this iteration     100.00

 eigenvalues of (default mixing * dielectric matrix)
  average eigenvalue GAMMA=   0.7796
  1.5900  0.6024  0.1464

 Free energy of the ion-electron system (eV)
  ---------------------------------------------------
  alpha Z        PSCENC =       785.34158087
  Ewald energy   TEWEN  =    384445.59032920
  -Hartree energ DENC   =   -438066.59251520
  -exchange      EXHF   =         0.00000000
  -V(xc)+E(xc)   XCENC  =     -1784.54167311
  PAW double counting   =     60234.54656758   -56377.31599965
  entropy T*S    EENTRO =        -0.11033351
  eigenvalues    EBANDS =     -2568.63363773
  atomic energy  EATOM  =     52990.04641755
  Solvation  Ediel_sol  =         0.00000000
  ---------------------------------------------------
  free energy    TOTEN  =      -341.66926401 eV

  energy without entropy =     -341.55893050  energy(sigma->0) =     -341.63248617


--------------------------------------------------------------------------------------------------------




--------------------------------------- Iteration      1(   9)  ---------------------------------------


    POTLOK:  cpu time    0.3979: real time    0.2187
    SETDIJ:  cpu time    0.0260: real time    0.0159
    EDDIAG:  cpu time   15.3811: real time    7.6919
  RMM-DIIS:  cpu time   34.0009: real time   17.3908
    ORTHCH:  cpu time    3.9280: real time    1.9715
       DOS:  cpu time    0.0057: real time    0.0028
    CHARGE:  cpu time    2.6886: real time    2.3425
    MIXING:  cpu time    0.0052: real time    0.0026
    --------------------------------------------
      LOOP:  cpu time   56.4334: real time   29.6366

 eigenvalue-minimisations  : 18439
 total energy-change (2. order) : 0.1587729E+02  (-0.1382595E+01)
 number of electron     659.9999484 magnetization      59.4307830
 augmentation part      271.2413617 magnetization      45.1686403

 DIPCOR: dipole corrections for dipol
 direction  3 min pos     1,
 dipolmoment           0.000000      0.000000      0.442568 electrons x Angstroem
 Tr[quadrupol]    -13933.656038

 energy correction for charged system         0.000000 eV
 dipol+quadrupol energy correction           -0.004898 eV
 added-field ion interaction         -2.596388 eV  (added to PSCEN)


 Broyden mixing:
  rms(total) = 0.49035E+01    rms(broyden)= 0.49020E+01
  rms(prec ) = 0.59364E+01
  weight for this iteration     100.00

 eigenvalues of (default mixing * dielectric matrix)
  average eigenvalue GAMMA=   0.7247
  1.8880  0.7035  0.2001  0.1073

 Free energy of the ion-electron system (eV)
  ---------------------------------------------------
  alpha Z        PSCENC =       772.00266242
  Ewald energy   TEWEN  =    384445.59032920
  -Hartree energ DENC   =   -438076.71950346
  -exchange      EXHF   =         0.00000000
  -V(xc)+E(xc)   XCENC  =     -1780.21338194
  PAW double counting   =     61184.09882404   -57342.65044306
  entropy T*S    EENTRO =        -0.03162948
  eigenvalues    EBANDS =     -2517.91525399
  atomic energy  EATOM  =     52990.04641755
  Solvation  Ediel_sol  =         0.00000000
  ---------------------------------------------------
  free energy    TOTEN  =      -325.79197873 eV

  energy without entropy =     -325.76034924  energy(sigma->0) =     -325.78143557


--------------------------------------------------------------------------------------------------------




--------------------------------------- Iteration      1(  10)  ---------------------------------------


    POTLOK:  cpu time    0.3945: real time    0.2322
    SETDIJ:  cpu time    0.0328: real time    0.0221
    EDDIAG:  cpu time   15.4440: real time    7.7237
  RMM-DIIS:  cpu time   34.1450: real time   17.4469
    ORTHCH:  cpu time    3.9178: real time    1.9665
       DOS:  cpu time    0.2058: real time   25.7430
    CHARGE:  cpu time    2.4578: real time    2.1289
    MIXING:  cpu time    0.0052: real time    0.0026
    --------------------------------------------
      LOOP:  cpu time   56.6029: real time   55.2660

 eigenvalue-minimisations  : 18451
 total energy-change (2. order) : 0.2584789E+02  (-0.8350913E+00)
 number of electron     659.9999513 magnetization      57.9359110
 augmentation part      272.6879200 magnetization      40.9726307

 DIPCOR: dipole corrections for dipol
 direction  3 min pos     1,
 dipolmoment           0.000000      0.000000     -0.283802 electrons x Angstroem
 Tr[quadrupol]    -13934.546220

 energy correction for charged system         0.000000 eV
 dipol+quadrupol energy correction           -0.002014 eV
 added-field ion interaction          1.664963 eV  (added to PSCEN)


 Broyden mixing:
  rms(total) = 0.22439E+01    rms(broyden)= 0.22434E+01
  rms(prec ) = 0.24033E+01
  weight for this iteration     100.00

 eigenvalues of (default mixing * dielectric matrix)
  average eigenvalue GAMMA=   0.6748
  2.0277  0.7287  0.3186  0.1922  0.1070

 Free energy of the ion-electron system (eV)
  ---------------------------------------------------
  alpha Z        PSCENC =       776.26689697
  Ewald energy   TEWEN  =    384445.59032920
  -Hartree energ DENC   =   -438088.74579895
  -exchange      EXHF   =         0.00000000
  -V(xc)+E(xc)   XCENC  =     -1777.15784189
  PAW double counting   =     61801.64025856   -57969.74026483
  entropy T*S    EENTRO =        -0.11572556
  eigenvalues    EBANDS =     -2477.72835936
  atomic energy  EATOM  =     52990.04641755
  Solvation  Ediel_sol  =         0.00000000
  ---------------------------------------------------
  free energy    TOTEN  =      -299.94408830 eV

  energy without entropy =     -299.82836274  energy(sigma->0) =     -299.90551312


--------------------------------------------------------------------------------------------------------




--------------------------------------- Iteration      1(  11)  ---------------------------------------


    POTLOK:  cpu time    0.3855: real time    0.2192
    SETDIJ:  cpu time    0.0265: real time    0.0161
    EDDIAG:  cpu time   15.7458: real time    7.8744
  RMM-DIIS:  cpu time   34.1507: real time   17.5049
    ORTHCH:  cpu time    4.0820: real time    2.0571
       DOS:  cpu time    0.0059: real time    0.0029
    CHARGE:  cpu time    2.2453: real time    1.9083
    MIXING:  cpu time    0.0054: real time    0.0027
    --------------------------------------------
      LOOP:  cpu time   56.6471: real time   29.5857

 eigenvalue-minimisations  : 18459
 total energy-change (2. order) : 0.2907421E+01  (-0.6506894E+00)
 number of electron     659.9999520 magnetization      56.2803559
 augmentation part      272.8293522 magnetization      40.3477304

 DIPCOR: dipole corrections for dipol
 direction  3 min pos     1,
 dipolmoment           0.000000      0.000000     -0.364594 electrons x Angstroem
 Tr[quadrupol]    -13934.613792

 energy correction for charged system         0.000000 eV
 dipol+quadrupol energy correction           -0.003324 eV
 added-field ion interaction          2.138943 eV  (added to PSCEN)


 Broyden mixing:
  rms(total) = 0.20690E+01    rms(broyden)= 0.20687E+01
  rms(prec ) = 0.22971E+01
  weight for this iteration     100.00

 eigenvalues of (default mixing * dielectric matrix)
  average eigenvalue GAMMA=   0.6516
  2.1507  0.7951  0.3417  0.3417  0.1724  0.1078

 Free energy of the ion-electron system (eV)
  ---------------------------------------------------
  alpha Z        PSCENC =       776.73956676
  Ewald energy   TEWEN  =    384445.59032920
  -Hartree energ DENC   =   -438087.58946369
  -exchange      EXHF   =         0.00000000
  -V(xc)+E(xc)   XCENC  =     -1776.97700288
  PAW double counting   =     62166.56215509   -58337.27800560
  entropy T*S    EENTRO =        -0.06741413
  eigenvalues    EBANDS =     -2474.06324931
  atomic energy  EATOM  =     52990.04641755
  Solvation  Ediel_sol  =         0.00000000
  ---------------------------------------------------
  free energy    TOTEN  =      -297.03666701 eV

  energy without entropy =     -296.96925288  energy(sigma->0) =     -297.01419563


--------------------------------------------------------------------------------------------------------




--------------------------------------- Iteration      1(  12)  ---------------------------------------


    POTLOK:  cpu time    0.4025: real time    0.2246
    SETDIJ:  cpu time    0.0255: real time    0.0156
    EDDIAG:  cpu time   15.5661: real time    7.7848
  RMM-DIIS:  cpu time   34.2788: real time   17.6079
    ORTHCH:  cpu time    4.1941: real time    2.1042
       DOS:  cpu time    0.0050: real time    0.0025
    CHARGE:  cpu time    2.2519: real time    1.9216
    MIXING:  cpu time    0.0053: real time    0.0026
    --------------------------------------------
      LOOP:  cpu time   56.7292: real time   29.6638

 eigenvalue-minimisations  : 18456
 total energy-change (2. order) : 0.1860840E+01  (-0.2373847E+00)
 number of electron     659.9999518 magnetization      55.4000405
 augmentation part      271.8332895 magnetization      38.9836578

 DIPCOR: dipole corrections for dipol
 direction  3 min pos     1,
 dipolmoment           0.000000      0.000000     -0.267267 electrons x Angstroem
 Tr[quadrupol]    -13937.308531

 energy correction for charged system         0.000000 eV
 dipol+quadrupol energy correction           -0.001786 eV
 added-field ion interaction          1.567958 eV  (added to PSCEN)


 Broyden mixing:
  rms(total) = 0.15443E+01    rms(broyden)= 0.15441E+01
  rms(prec ) = 0.16603E+01
  weight for this iteration     100.00

 eigenvalues of (default mixing * dielectric matrix)
  average eigenvalue GAMMA=   0.6148
  2.1555  0.8059  0.4334  0.4334  0.1085  0.2006  0.1660

 Free energy of the ion-electron system (eV)
  ---------------------------------------------------
  alpha Z        PSCENC =       776.17011977
  Ewald energy   TEWEN  =    384445.59032920
  -Hartree energ DENC   =   -438207.85951610
  -exchange      EXHF   =         0.00000000
  -V(xc)+E(xc)   XCENC  =     -1776.39131313
  PAW double counting   =     62479.01533048   -58650.90100053
  entropy T*S    EENTRO =        -0.06461741
  eigenvalues    EBANDS =     -2350.78157730
  atomic energy  EATOM  =     52990.04641755
  Solvation  Ediel_sol  =         0.00000000
  ---------------------------------------------------
  free energy    TOTEN  =      -295.17582747 eV

  energy without entropy =     -295.11121006  energy(sigma->0) =     -295.15428833


--------------------------------------------------------------------------------------------------------




--------------------------------------- Iteration      1(  13)  ---------------------------------------


    POTLOK:  cpu time    0.3633: real time    0.2243
    SETDIJ:  cpu time    0.0257: real time    0.0158
    EDDIAG:  cpu time   15.5059: real time    7.7543
  RMM-DIIS:  cpu time   34.0986: real time   17.5309
    ORTHCH:  cpu time    4.2424: real time    2.1363
       DOS:  cpu time    0.0060: real time    0.0030
    CHARGE:  cpu time    2.7228: real time    2.3864
    MIXING:  cpu time    0.0061: real time    0.0031
    --------------------------------------------
      LOOP:  cpu time   56.9708: real time   30.0539

 eigenvalue-minimisations  : 18463
 total energy-change (2. order) :-0.1666880E+01  (-0.1118758E+00)
 number of electron     659.9999513 magnetization      54.3241529
 augmentation part      271.5475369 magnetization      37.6351806

 DIPCOR: dipole corrections for dipol
 direction  3 min pos     1,
 dipolmoment           0.000000      0.000000     -0.149734 electrons x Angstroem
 Tr[quadrupol]    -13938.201034

 energy correction for charged system         0.000000 eV
 dipol+quadrupol energy correction           -0.000561 eV
 added-field ion interaction          0.878435 eV  (added to PSCEN)


 Broyden mixing:
  rms(total) = 0.12487E+01    rms(broyden)= 0.12486E+01
  rms(prec ) = 0.13725E+01
  weight for this iteration     100.00

 eigenvalues of (default mixing * dielectric matrix)
  average eigenvalue GAMMA=   0.5898
  2.0624  0.6695  0.6469  0.6469  0.1076  0.2055  0.2055  0.1737

 Free energy of the ion-electron system (eV)
  ---------------------------------------------------
  alpha Z        PSCENC =       775.48182216
  Ewald energy   TEWEN  =    384445.59032920
  -Hartree energ DENC   =   -438251.58664591
  -exchange      EXHF   =         0.00000000
  -V(xc)+E(xc)   XCENC  =     -1778.03439974
  PAW double counting   =     62514.96681572   -58686.04405203
  entropy T*S    EENTRO =        -0.04234274
  eigenvalues    EBANDS =     -2307.22065208
  atomic energy  EATOM  =     52990.04641755
  Solvation  Ediel_sol  =         0.00000000
  ---------------------------------------------------
  free energy    TOTEN  =      -296.84270788 eV

  energy without entropy =     -296.80036514  energy(sigma->0) =     -296.82859363


--------------------------------------------------------------------------------------------------------




--------------------------------------- Iteration      1(  14)  ---------------------------------------


    POTLOK:  cpu time    0.3947: real time    0.2307
    SETDIJ:  cpu time    0.0259: real time    0.0159
    EDDIAG:  cpu time   15.3911: real time    7.6975
  RMM-DIIS:  cpu time   34.3771: real time   17.7309
    ORTHCH:  cpu time    4.1532: real time    2.0841
       DOS:  cpu time    0.0051: real time    0.0026
    CHARGE:  cpu time    2.8387: real time    2.5049
    MIXING:  cpu time    0.0057: real time    0.0029
    --------------------------------------------
      LOOP:  cpu time   57.1916: real time   30.2694

 eigenvalue-minimisations  : 18461
 total energy-change (2. order) :-0.4080158E+01  (-0.1197165E+00)
 number of electron     659.9999515 magnetization      53.1616181
 augmentation part      271.6224358 magnetization      37.1208561

 DIPCOR: dipole corrections for dipol
 direction  3 min pos     1,
 dipolmoment           0.000000      0.000000     -0.108662 electrons x Angstroem
 Tr[quadrupol]    -13938.163797

 energy correction for charged system         0.000000 eV
 dipol+quadrupol energy correction           -0.000295 eV
 added-field ion interaction          0.637480 eV  (added to PSCEN)


 Broyden mixing:
[...]
   -.559E+01 0.381E+00 0.968E+03   0.559E+01 -.490E+00 -.968E+03   0.152E-02 0.326E-01 -.491E-01   -.176E-02 0.812E-01 -.374E-01
   -.548E+01 0.909E-01 0.975E+03   0.554E+01 -.134E+00 -.975E+03   -.489E-01 0.971E-03 0.260E-01   -.733E-02 0.384E-01 -.300E-01
   -.436E+01 -.137E+01 0.972E+03   0.435E+01 0.148E+01 -.972E+03   0.140E-01 -.301E-01 -.692E-01   -.735E-02 -.802E-01 -.395E-01
   0.208E+02 0.154E+02 -.795E+03   -.207E+02 -.153E+02 0.795E+03   -.107E+00 -.192E+00 -.101E+00   0.324E-03 0.319E-01 -.801E-02
   0.277E+02 -.603E+01 -.794E+03   -.275E+02 0.569E+01 0.795E+03   -.216E+00 0.263E+00 -.304E+00   0.380E-02 0.741E-01 -.262E-01
   0.181E+02 -.119E+02 -.779E+03   -.183E+02 0.119E+02 0.779E+03   0.160E+00 0.293E-01 0.198E+00   0.539E-02 -.313E-01 -.418E-01
   0.153E+02 0.178E+01 -.789E+03   -.152E+02 -.170E+01 0.790E+03   -.469E-01 -.490E-02 -.305E-01   0.452E-02 -.765E-01 -.215E-01
   0.490E+01 0.176E+02 -.766E+03   -.493E+01 -.179E+02 0.765E+03   0.159E-01 0.251E+00 0.640E+00   0.151E-01 0.330E-01 0.581E-02
   0.794E+01 0.143E+01 -.755E+03   -.790E+01 -.132E+01 0.754E+03   -.698E-01 -.190E+00 0.601E+00   0.183E-01 0.802E-01 -.152E-01
   0.871E+01 -.205E+02 -.736E+03   -.858E+01 0.203E+02 0.735E+03   -.150E+00 0.220E+00 0.942E+00   0.217E-01 -.296E-01 -.339E-01
   0.456E+01 0.186E+01 -.765E+03   -.459E+01 -.157E+01 0.765E+03   0.122E-01 -.210E+00 0.103E+00   0.180E-01 -.813E-01 -.108E-01
   -.219E+02 0.189E+02 -.786E+03   0.218E+02 -.187E+02 0.786E+03   0.905E-01 -.221E+00 -.111E+00   0.142E-03 0.333E-01 -.371E-02
   -.295E+02 -.178E+01 -.788E+03   0.292E+02 0.154E+01 0.788E+03   0.268E+00 0.155E+00 -.284E+00   -.133E-02 0.805E-01 -.235E-01
   -.209E+02 -.164E+02 -.772E+03   0.210E+02 0.163E+02 0.772E+03   -.333E-01 0.140E+00 0.975E-01   -.523E-02 -.316E-01 -.391E-01
   -.161E+02 -.129E+01 -.780E+03   0.161E+02 0.135E+01 0.780E+03   0.221E-01 0.140E-01 -.115E-01   -.383E-02 -.814E-01 -.197E-01
   -.357E+01 0.977E+01 -.790E+03   0.359E+01 -.977E+01 0.791E+03   -.167E-02 -.335E-01 0.465E-01   -.159E-01 0.321E-01 -.171E-01
   -.655E+01 -.417E+00 -.785E+03   0.656E+01 0.328E+00 0.785E+03   0.622E-02 0.126E-01 0.489E-01   -.209E-01 0.758E-01 -.326E-01
   -.672E+01 -.873E+01 -.790E+03   0.672E+01 0.876E+01 0.790E+03   0.163E-01 0.631E-02 0.421E-01   -.225E-01 -.336E-01 -.458E-01
   -.341E+01 -.618E+00 -.796E+03   0.343E+01 0.672E+00 0.796E+03   -.537E-02 0.224E-01 0.668E-01   -.182E-01 -.745E-01 -.290E-01
   0.195E+02 0.193E+02 -.255E+04   -.195E+02 -.193E+02 0.255E+04   0.178E-01 0.223E-01 0.323E+01   -.286E-02 -.191E-01 0.279E-01
   0.414E+02 0.132E+02 -.254E+04   -.412E+02 -.132E+02 0.254E+04   -.173E+00 -.819E-02 0.321E+01   -.425E-02 0.529E-01 0.118E-01
   0.230E+02 -.200E+02 -.254E+04   -.230E+02 0.200E+02 0.254E+04   0.274E-01 -.253E-02 0.324E+01   -.882E-02 0.193E-01 -.253E-01
   0.142E+02 -.120E+02 -.255E+04   -.142E+02 0.121E+02 0.255E+04   -.237E-01 -.431E-01 0.322E+01   -.298E-02 -.556E-01 -.112E-01
   0.418E+02 0.538E+02 -.250E+04   -.421E+02 -.544E+02 0.250E+04   0.291E+00 0.580E+00 0.347E+01   0.162E-01 -.187E-01 0.271E-01
   0.184E+03 0.318E+02 -.239E+04   -.184E+03 -.316E+02 0.239E+04   -.212E+00 -.264E+00 0.399E+00   0.168E-01 0.510E-01 0.173E-01
   0.102E+03 -.409E+02 -.245E+04   -.102E+03 0.414E+02 0.245E+04   0.194E+00 -.486E+00 0.281E+01   0.167E-01 0.189E-01 -.268E-01
   0.630E+02 -.512E+02 -.253E+04   -.624E+02 0.507E+02 0.253E+04   -.690E+00 0.602E+00 0.227E+01   0.187E-01 -.516E-01 -.117E-01
   -.322E+02 0.556E+02 -.250E+04   0.325E+02 -.561E+02 0.250E+04   -.266E+00 0.513E+00 0.342E+01   0.293E-02 -.217E-01 0.213E-01
   -.160E+03 0.589E+02 -.235E+04   0.160E+03 -.589E+02 0.235E+04   0.249E+00 -.514E-01 0.462E+00   0.277E-02 0.540E-01 0.844E-02
   -.574E+02 -.474E+02 -.238E+04   0.576E+02 0.476E+02 0.238E+04   -.188E+00 -.196E+00 0.310E+01   0.706E-02 0.195E-01 -.349E-01
   -.376E+02 -.719E+02 -.249E+04   0.373E+02 0.719E+02 0.249E+04   0.333E+00 0.209E-01 0.254E+01   0.643E-02 -.570E-01 -.228E-01
   -.295E+02 0.197E+02 -.255E+04   0.295E+02 -.197E+02 0.254E+04   -.113E-01 0.815E-02 0.321E+01   -.170E-01 -.193E-01 0.192E-01
   -.634E+02 0.252E+02 -.253E+04   0.633E+02 -.253E+02 0.252E+04   0.149E+00 0.411E-01 0.324E+01   -.169E-01 0.561E-01 0.578E-02
   -.683E+02 -.197E+02 -.251E+04   0.686E+02 0.196E+02 0.250E+04   -.251E+00 0.229E-02 0.342E+01   -.194E-01 0.209E-01 -.350E-01
   -.364E+02 -.248E+02 -.254E+04   0.364E+02 0.249E+02 0.253E+04   0.361E-01 -.657E-01 0.327E+01   -.181E-01 -.569E-01 -.185E-01
 -----------------------------------------------------------------------------------------------
   0.334E+02 0.340E+01 0.279E+02   0.561E-12 0.284E-13 0.182E-11   -.334E+02 -.341E+01 -.266E+02   -.117E-01 0.139E-01 -.126E+01
 
 
 POSITION                                       TOTAL-FORCE (eV/Angst)
 -----------------------------------------------------------------------------------
      4.02002      7.02160     18.32506        -0.000288     -0.000850     -0.001585
      4.89482      6.21295     20.64310         0.004948      0.003198      0.002210
      5.13589      4.67485     20.70857        -0.003243     -0.003200      0.002212
      4.11525      2.68331     19.37734        -0.000711     -0.004922     -0.001371
      4.13558      2.98367     20.55268         0.002803      0.006337      0.005535
      5.54494      5.52037     20.41965         0.017982     -0.001920     -0.001739
      1.37275      1.37275     12.08797        -0.001286      0.021671      0.005709
      1.37275      4.11824     12.08797         0.006919     -0.021656      0.020855
      1.37275      6.86373     12.08797        -0.002381     -0.006661      0.014933
      1.37275      9.60922     12.08797        -0.013243      0.008803     -0.016525
      4.11824      1.37275     12.08797        -0.004004      0.001137      0.026451
      4.11824      4.11824     12.08797         0.000139      0.003809      0.012552
      4.11824      6.86373     12.08797         0.000416     -0.004332      0.006717
      4.11824      9.60922     12.08797        -0.001612      0.002150      0.019933
      6.86373      1.37275     12.08797        -0.003426      0.028499      0.018034
      6.86373      4.11824     12.08797        -0.001877     -0.023330      0.010530
      6.86373      6.86373     12.08797         0.001969     -0.008549      0.005330
      6.86373      9.60922     12.08797        -0.003931     -0.008459      0.000756
      9.60922      1.37275     12.08797        -0.002202      0.033252      0.001039
      9.60922      4.11824     12.08797        -0.002065     -0.020010      0.036833
      9.60922      6.86373     12.08797        -0.002636      0.050139     -0.025170
      9.60922      9.60922     12.08797         0.005330     -0.059579     -0.063644
     10.97852      0.00453     14.03167        -0.002361      0.001402     -0.001170
      0.00569      2.74597     14.05035         0.003071     -0.002068     -0.003540
      0.00157      5.48470     14.03838         0.000930     -0.001551     -0.003344
     10.98009      8.23714     14.04116         0.001735     -0.001303     -0.005527
      2.73937      0.00731     14.04125         0.000769      0.004599     -0.003278
      2.74912      2.74847     14.05199        -0.001180      0.000317      0.004901
      2.74565      5.48425     14.04490         0.000185     -0.001299     -0.001429
      2.74376      8.23593     14.03795        -0.001106     -0.003047     -0.001351
      5.49367      0.00730     14.03922        -0.001883      0.001244     -0.002286
      5.48719      2.74853     14.05449        -0.000641      0.000208     -0.002943
      5.49547      5.48195     14.03991        -0.000239      0.000750     -0.005620
      5.48988      8.23359     14.04089         0.003336     -0.001825     -0.002776
      8.23584      0.00320     14.03310         0.002251     -0.002652     -0.000430
      8.22857      2.74541     14.05075        -0.001446      0.004179      0.002507
      8.23477      5.48371     14.04191        -0.000563     -0.002575     -0.002444
      8.23350      8.23462     14.04067        -0.002117      0.002023     -0.002473
      1.37620      1.38539     16.01144        -0.002664     -0.000891     -0.004312
      1.38972      4.10835     16.02547         0.004610     -0.000936     -0.003985
      1.36558      6.86268     15.98006         0.003419      0.000332     -0.001289
      1.36810      9.61304     15.98235         0.002261     -0.000896      0.002893
      4.11340      1.38474     16.00732         0.001783      0.001480     -0.002520
      4.12787      4.12473     16.01763        -0.006018     -0.001034     -0.002314
      4.12787      6.85595     15.97252        -0.001354      0.001265     -0.001317
      4.11119      9.61646     15.97314         0.001877      0.000592      0.004310
      6.85627      1.38352     16.00903        -0.001869     -0.000133      0.001905
      6.84264      4.11352     16.03560         0.005015     -0.003503     -0.002470
      6.86181      6.84641     15.99088         0.001711      0.003996     -0.005609
      6.85983      9.60809     15.97965         0.000500      0.000473      0.001806
      9.60743      1.37125     15.98398         0.001058     -0.001940      0.004116
      9.61088      4.11778     15.98874        -0.005740     -0.000765     -0.000905
      9.60744      6.86231     15.98203        -0.001096     -0.001116      0.001056
      9.60500      9.61035     15.97897        -0.000646      0.003600      0.000610
     10.96960     10.97792     17.94475        -0.000524     -0.000583     -0.000704
     10.96036      2.74499     17.95650        -0.002139     -0.001714     -0.000658
     10.98133      5.49855     17.95329        -0.003953      0.000577     -0.003666
     10.96871      8.24086     17.93587         0.002422     -0.002367     -0.004177
      2.73498     10.96380     17.93674         0.000123     -0.002475     -0.002652
      2.68346      2.76352     18.06286        -0.000512      0.002797      0.001158
      2.74423      5.53188     17.95439        -0.001079      0.000176     -0.005542
      2.72959      8.25377     17.96372         0.000656      0.005240     -0.006330
      5.49349     10.95616     17.93647        -0.000457     -0.001940     -0.002907
      5.54021      2.73626     18.05105         0.003356      0.000174     -0.002288
      5.51208      5.52928     18.04942        -0.001691     -0.000436      0.002286
      5.48178      8.25084     17.94584         0.002761      0.002855     -0.006750
      8.23915     10.97382     17.94245        -0.000674      0.000988     -0.002438
      8.25232      2.73954     17.95790        -0.000129      0.001162      0.000050
      8.26655      5.49272     17.94465        -0.000544      0.000557     -0.003355
      8.22747      8.23755     17.93653         0.001192      0.000533     -0.002395
 -----------------------------------------------------------------------------------
    total drift:                               -0.001743     -0.001189      0.014981


--------------------------------------------------------------------------------------------------------



  FREE ENERGIE OF THE ION-ELECTRON SYSTEM (eV)
  ---------------------------------------------------
  free  energy   TOTEN  =      -369.54408122 eV

  energy  without entropy=     -369.41811696  energy(sigma->0) =     -369.50209314
 
 d Force = 0.3724213E-04[ 0.200E-04, 0.545E-04]  d Energy = 0.4649083E-04-0.925E-05
 d Force =-0.1992882E+01[-0.199E+01,-0.199E+01]  d Ewald  =-0.1992882E+01 0.797E-08


--------------------------------------------------------------------------------------------------------


    POTLOK:  cpu time    0.5240: real time    0.4991


--------------------------------------------------------------------------------------------------------


 Conjugate gradient step on ions:
 trial-energy change:   -0.000046  1 .order   -0.000037   -0.000055   -0.000020
  (g-gl).g = 0.172E-03      g.g   = 0.234E-03  gl.gl    = 0.489E-03
 g(Force)  = 0.234E-03   g(Stress)= 0.000E+00 ortho     =-0.685E-05
 gamma     =   0.35157
 trial     =   0.23588
 opt step  =   0.37204  (harmonic =   0.37204) maximal distance =0.00086800
 next E    =  -369.544078   (d E  =  -0.00004)


--------------------------------------------------------------------------------------------------------


  
 reached required accuracy - stopping structural energy minimisation
     LOOP+:  cpu time  374.0078: real time  200.3172
    4ORBIT:  cpu time    0.0000: real time    0.0000
 


 total charge     
 
# of ion       s       p       d       tot
------------------------------------------
    1        0.466   0.024   0.000   0.490
    2        0.616   0.113   0.000   0.730
    3        0.603   0.114   0.000   0.716
    4        1.303   2.362   0.000   3.665
    5        1.630   3.455   0.000   5.084
    6        1.589   3.614   0.000   5.203
    7        0.447   0.307   8.522   9.275
    8        0.445   0.307   8.521   9.274
    9        0.444   0.308   8.520   9.272
   10        0.445   0.308   8.521   9.275
   11        0.445   0.307   8.522   9.273
   12        0.445   0.307   8.521   9.274
   13        0.445   0.307   8.522   9.273
   14        0.445   0.307   8.522   9.274
   15        0.446   0.308   8.522   9.275
   16        0.446   0.307   8.521   9.275
   17        0.445   0.308   8.520   9.273
   18        0.445   0.308   8.521   9.274
   19        0.443   0.308   8.523   9.274
   20        0.445   0.306   8.520   9.271
   21        0.445   0.307   8.522   9.274
   22        0.444   0.309   8.522   9.275
   23        0.486   0.477   8.467   9.430
   24        0.485   0.477   8.458   9.419
   25        0.485   0.476   8.464   9.425
   26        0.488   0.482   8.456   9.426
   27        0.485   0.478   8.459   9.422
   28        0.486   0.477   8.459   9.422
   29        0.485   0.477   8.458   9.420
   30        0.487   0.479   8.460   9.427
   31        0.484   0.477   8.460   9.422
   32        0.486   0.478   8.457   9.421
   33        0.486   0.480   8.459   9.425
   34        0.487   0.480   8.458   9.425
   35        0.486   0.477   8.467   9.431
   36        0.484   0.475   8.458   9.418
   37        0.484   0.476   8.462   9.423
   38        0.487   0.480   8.458   9.425
   39        0.487   0.474   8.468   9.429
   40        0.488   0.475   8.463   9.426
   41        0.485   0.475   8.459   9.420
   42        0.488   0.479   8.462   9.429
   43        0.476   0.458   8.478   9.412
   44        0.477   0.454   8.478   9.409
   45        0.471   0.474   8.479   9.424
   46        0.487   0.476   8.463   9.426
   47        0.487   0.474   8.468   9.429
   48        0.487   0.472   8.462   9.420
   49        0.486   0.473   8.458   9.418
   50        0.487   0.479   8.460   9.426
   51        0.486   0.479   8.461   9.426
   52        0.485   0.478   8.458   9.420
   53        0.488   0.482   8.457   9.427
   54        0.488   0.481   8.457   9.427
   55        0.446   0.310   8.522   9.278
   56        0.452   0.317   8.525   9.294
   57        0.447   0.308   8.523   9.278
   58        0.448   0.310   8.524   9.281
   59        0.443   0.308   8.541   9.292
   60        0.482   0.463   8.503   9.448
   61        0.442   0.345   8.555   9.341
   62        0.456   0.373   8.543   9.373
   63        0.445   0.310   8.539   9.294
   64        0.484   0.464   8.507   9.455
   65        0.405   0.358   8.513   9.276
   66        0.449   0.357   8.541   9.347
   67        0.447   0.310   8.521   9.278
   68        0.451   0.316   8.527   9.294
   69        0.445   0.309   8.525   9.280
   70        0.446   0.309   8.524   9.279
--------------------------------------------------
tot         36.034  35.304 543.567 614.905
 


 magnetization (x)
 
# of ion       s       p       d       tot
------------------------------------------
    1       -0.002  -0.000   0.000  -0.002
    2       -0.000   0.000   0.000   0.000
    3       -0.000   0.000   0.000  -0.000
    4        0.000  -0.011   0.000  -0.010
    5       -0.000  -0.013   0.000  -0.013
    6        0.001   0.005   0.000   0.005
    7       -0.000  -0.003   0.211   0.208
    8       -0.001  -0.003   0.208   0.204
    9       -0.001  -0.003   0.212   0.207
   10       -0.000  -0.003   0.217   0.214
   11       -0.001  -0.003   0.210   0.206
   12       -0.000  -0.003   0.216   0.212
   13       -0.001  -0.004   0.211   0.207
   14       -0.001  -0.004   0.207   0.202
   15       -0.001  -0.004   0.211   0.206
   16       -0.000  -0.003   0.213   0.209
   17       -0.001  -0.003   0.216   0.212
   18       -0.001  -0.004   0.215   0.211
   19       -0.001  -0.004   0.214   0.210
   20       -0.002  -0.003   0.202   0.197
   21        0.001  -0.004   0.221   0.219
   22        0.001  -0.004   0.230   0.227
   23       -0.002  -0.006   0.304   0.297
   24       -0.002  -0.006   0.302   0.294
   25       -0.002  -0.006   0.289   0.281
   26       -0.002  -0.006   0.316   0.308
   27       -0.002  -0.006   0.298   0.290
   28       -0.002  -0.006   0.295   0.288
   29       -0.002  -0.006   0.302   0.295
   30       -0.002  -0.006   0.307   0.299
   31       -0.002  -0.006   0.298   0.291
   32       -0.002  -0.006   0.296   0.289
   33       -0.002  -0.006   0.305   0.298
   34       -0.002  -0.006   0.307   0.299
   35       -0.002  -0.006   0.308   0.300
   36       -0.002  -0.006   0.305   0.297
   37       -0.002  -0.006   0.293   0.285
   38       -0.002  -0.006   0.317   0.309
   39       -0.002  -0.006   0.262   0.255
   40       -0.002  -0.006   0.241   0.234
   41       -0.002  -0.006   0.292   0.284
   42       -0.002  -0.006   0.293   0.285
   43       -0.001  -0.005   0.272   0.266
   44       -0.001  -0.005   0.266   0.259
   45       -0.002  -0.005   0.262   0.255
   46       -0.002  -0.006   0.276   0.269
   47       -0.002  -0.006   0.259   0.252
   48       -0.002  -0.006   0.249   0.241
   49       -0.002  -0.006   0.294   0.287
   50       -0.002  -0.006   0.292   0.284
   51       -0.002  -0.006   0.296   0.288
   52       -0.002  -0.006   0.287   0.279
   53       -0.002  -0.006   0.317   0.310
   54       -0.002  -0.006   0.319   0.312
   55       -0.001  -0.003   0.207   0.203
   56       -0.000  -0.004   0.175   0.171
   57       -0.000  -0.003   0.200   0.196
   58       -0.001  -0.003   0.192   0.188
   59       -0.001  -0.003   0.191   0.187
   60       -0.003  -0.004   0.053   0.045
   61       -0.001  -0.003   0.152   0.148
   62       -0.001  -0.004   0.127   0.123
   63       -0.001  -0.003   0.191   0.187
   64       -0.003  -0.005   0.053   0.045
   65       -0.002  -0.003   0.157   0.151
   66       -0.001  -0.004   0.145   0.140
   67       -0.001  -0.003   0.207   0.203
   68       -0.001  -0.004   0.177   0.173
   69       -0.001  -0.003   0.210   0.206
   70       -0.001  -0.003   0.196   0.192
--------------------------------------------------
tot         -0.083  -0.316  15.367  14.968
 

 total amount of memory used by VASP MPI-rank0   228232. kBytes
=======================================================================

   base      :      30000. kBytes
   nonlr-proj:      51566. kBytes
   fftplans  :       5987. kBytes
   grid      :      86893. kBytes
   one-center:       2177. kBytes
   wavefun   :      51609. kBytes
 
  
  
 General timing and accounting informations for this job:
 ========================================================
  
                  Total CPU time used (sec):     7319.376
                            User time (sec):     6878.775
                          System time (sec):      440.601
                         Elapsed time (sec):     3934.198
  
                   Maximum memory used (kb):      661216.
                   Average memory used (kb):           0.
  
                          Minor page faults:      6992933
                          Major page faults:           14
                 Voluntary context switches:        33809
