 vasp.5.4.4.18Apr17-6-g9f103f2a35 (build Jun 11 2020 13:42:08) complex          
  
 executed on             LinuxIFC date 2022.02.13  09:44:12
 running on  120 total cores
 each image running on   20 cores
 distrk:  each k-point on   20 cores,    1 groups
 distr:  one band on NCORES_PER_BAND=  10 cores,    2 groups


--------------------------------------------------------------------------------------------------------


 INCAR:
 POTCAR:    PAW_PBE H 15Jun2001                   
 POTCAR:    PAW_PBE N 08Apr2002                   
 POTCAR:    PAW_PBE O 08Apr2002                   
 POTCAR:    PAW_PBE Pd 04Jan2005                  

 ----------------------------------------------------------------------------- 
|                                                                             |
|           W    W    AA    RRRRR   N    N  II  N    N   GGGG   !!!           |
|           W    W   A  A   R    R  NN   N  II  NN   N  G    G  !!!           |
|           W    W  A    A  R    R  N N  N  II  N N  N  G       !!!           |
|           W WW W  AAAAAA  RRRRR   N  N N  II  N  N N  G  GGG   !            |
|           WW  WW  A    A  R   R   N   NN  II  N   NN  G    G                |
|           W    W  A    A  R    R  N    N  II  N    N   GGGG   !!!           |
|                                                                             |
|      For optimal performance we recommend to set                            |
|        NCORE= 4 - approx SQRT( number of cores)                             |
|      NCORE specifies how many cores store one orbital (NPAR=cpu/NCORE).     |
|      This setting can  greatly improve the performance of VASP for DFT.     |
|      The default,   NCORE=1            might be grossly inefficient         |
|      on modern multi-core architectures or massively parallel machines.     |
|      Do your own testing !!!!                                               |
|      Unfortunately you need to use the default for GW and RPA calculations. |
|      (for HF NCORE is supported but not extensively tested yet)             |
|                                                                             |
 ----------------------------------------------------------------------------- 

 POTCAR:    PAW_PBE H 15Jun2001                   
   VRHFIN =H: ultrasoft test                                                    
   LEXCH  = PE                                                                  
   EATOM  =    12.4884 eV,    0.9179 Ry                                         
                                                                                
   TITEL  = PAW_PBE H 15Jun2001                                                 
   LULTRA =        F    use ultrasoft PP ?                                      
   IUNSCR =        0    unscreen: 0-lin 1-nonlin 2-no                           
   RPACOR =    0.000    partial core radius                                     
   POMASS =    1.000; ZVAL   =    1.000    mass and valenz                      
   RCORE  =    1.100    outmost cutoff radius                                   
   RWIGS  =    0.700; RWIGS  =    0.370    wigner-seitz radius (au A)           
   ENMAX  =  250.000; ENMIN  =  200.000 eV                                      
   RCLOC  =    0.701    cutoff for local pot                                    
   LCOR   =        T    correct aug charges                                     
   LPAW   =        T    paw PP                                                  
   EAUG   =  400.000                                                            
   RMAX   =    1.123    core radius for proj-oper                               
   RAUG   =    1.200    factor for augmentation sphere                          
   RDEP   =    1.112    radius for radial grids                                 
   RDEPT  =    0.926    core radius for aug-charge                              
                                                                                
   Atomic configuration                                                         
    2 entries                                                                   
     n  l   j            E        occ.                                          
     1  0  0.50        -6.4927   1.0000                                         
     2  1  0.50        -3.4015   0.0000                                         
   Description                                                                  
     l       E           TYP  RCUT    TYP  RCUT                                 
     0     -6.4927494     23  1.100                                             
     0      6.8029130     23  1.100                                             
     1     -4.0817478     23  1.100                                             
  local pseudopotential read in
  atomic valenz-charges read in
  non local Contribution for L=           0  read in
    real space projection operators read in
  non local Contribution for L=           0  read in
    real space projection operators read in
  non local Contribution for L=           1  read in
    real space projection operators read in
    PAW grid and wavefunctions read in
 
   number of l-projection  operators is LMAX  =           3
   number of lm-projection operators is LMMAX =           5
 
 POTCAR:    PAW_PBE N 08Apr2002                   
   VRHFIN =N: s2p3                                                              
   LEXCH  = PE                                                                  
   EATOM  =   264.5486 eV,   19.4438 Ry                                         
                                                                                
   TITEL  = PAW_PBE N 08Apr2002                                                 
   LULTRA =        F    use ultrasoft PP ?                                      
   IUNSCR =        1    unscreen: 0-lin 1-nonlin 2-no                           
   RPACOR =    1.200    partial core radius                                     
   POMASS =   14.001; ZVAL   =    5.000    mass and valenz                      
   RCORE  =    1.500    outmost cutoff radius                                   
   RWIGS  =    1.400; RWIGS  =    0.741    wigner-seitz radius (au A)           
   ENMAX  =  400.000; ENMIN  =  300.000 eV                                      
   ICORE  =        2    local potential                                         
   LCOR   =        T    correct aug charges                                     
   LPAW   =        T    paw PP                                                  
   EAUG   =  627.112                                                            
   DEXC   =    0.000                                                            
   RMAX   =    1.529    core radius for proj-oper                               
   RAUG   =    1.300    factor for augmentation sphere                          
   RDEP   =    1.514    radius for radial grids                                 
   RDEPT  =    1.338    core radius for aug-charge                              
                                                                                
   Atomic configuration                                                         
    4 entries                                                                   
     n  l   j            E        occ.                                          
     1  0  0.50      -384.7179   2.0000                                         
     2  0  0.50       -18.5828   2.0000                                         
     2  1  0.50        -7.0898   3.0000                                         
     3  2  1.50        -6.8029   0.0000                                         
   Description                                                                  
     l       E           TYP  RCUT    TYP  RCUT                                 
     0    -18.5828119     23  1.200                                             
     0    -13.5018863     23  1.200                                             
     1     -7.0897853     23  1.500                                             
     1      9.5240782     23  1.500                                             
     2     -6.8029130      7  1.500                                             
  local pseudopotential read in
  partial core-charges read in
  partial kinetic energy density read in
  atomic valenz-charges read in
  non local Contribution for L=           0  read in
    real space projection operators read in
  non local Contribution for L=           0  read in
    real space projection operators read in
  non local Contribution for L=           1  read in
    real space projection operators read in
  non local Contribution for L=           1  read in
    real space projection operators read in
    PAW grid and wavefunctions read in
 
   number of l-projection  operators is LMAX  =           4
   number of lm-projection operators is LMMAX =           8
 
 POTCAR:    PAW_PBE O 08Apr2002                   
   VRHFIN =O: s2p4                                                              
   LEXCH  = PE                                                                  
   EATOM  =   432.3788 eV,   31.7789 Ry                                         
                                                                                
   TITEL  = PAW_PBE O 08Apr2002                                                 
   LULTRA =        F    use ultrasoft PP ?                                      
   IUNSCR =        1    unscreen: 0-lin 1-nonlin 2-no                           
   RPACOR =    1.200    partial core radius                                     
   POMASS =   16.000; ZVAL   =    6.000    mass and valenz                      
   RCORE  =    1.520    outmost cutoff radius                                   
   RWIGS  =    1.550; RWIGS  =    0.820    wigner-seitz radius (au A)           
   ENMAX  =  400.000; ENMIN  =  300.000 eV                                      
   ICORE  =        2    local potential                                         
   LCOR   =        T    correct aug charges                                     
   LPAW   =        T    paw PP                                                  
   EAUG   =  605.392                                                            
   DEXC   =    0.000                                                            
   RMAX   =    1.553    core radius for proj-oper                               
   RAUG   =    1.300    factor for augmentation sphere                          
   RDEP   =    1.550    radius for radial grids                                 
   RDEPT  =    1.329    core radius for aug-charge                              
                                                                                
   Atomic configuration                                                         
    4 entries                                                                   
     n  l   j            E        occ.                                          
     1  0  0.50      -514.6923   2.0000                                         
     2  0  0.50       -23.9615   2.0000                                         
     2  1  0.50        -9.0305   4.0000                                         
     3  2  1.50        -9.5241   0.0000                                         
   Description                                                                  
     l       E           TYP  RCUT    TYP  RCUT                                 
     0    -23.9615318     23  1.200                                             
     0     -9.5240782     23  1.200                                             
     1     -9.0304911     23  1.520                                             
     1      8.1634956     23  1.520                                             
     2     -9.5240782      7  1.500                                             
  local pseudopotential read in
  partial core-charges read in
  partial kinetic energy density read in
  kinetic energy density of atom read in
  atomic valenz-charges read in
  non local Contribution for L=           0  read in
    real space projection operators read in
  non local Contribution for L=           0  read in
    real space projection operators read in
  non local Contribution for L=           1  read in
    real space projection operators read in
  non local Contribution for L=           1  read in
    real space projection operators read in
    PAW grid and wavefunctions read in
 
   number of l-projection  operators is LMAX  =           4
   number of lm-projection operators is LMMAX =           8
 
 POTCAR:    PAW_PBE Pd 04Jan2005                  
   VRHFIN =Pd : s1 d9                                                           
   LEXCH  = PE                                                                  
   EATOM  =   809.7530 eV,   59.5152 Ry                                         
                                                                                
   TITEL  = PAW_PBE Pd 04Jan2005                                                
   LULTRA =        F    use ultrasoft PP ?                                      
   IUNSCR =        1    unscreen: 0-lin 1-nonlin 2-no                           
   RPACOR =    2.000    partial core radius                                     
   POMASS =  106.420; ZVAL   =   10.000    mass and valenz                      
   RCORE  =    2.600    outmost cutoff radius                                   
   RWIGS  =    2.710; RWIGS  =    1.434    wigner-seitz radius (au A)           
   ENMAX  =  250.925; ENMIN  =  188.194 eV                                      
   ICORE  =        3    local potential                                         
   LCOR   =        T    correct aug charges                                     
   LPAW   =        T    paw PP                                                  
   EAUG   =  416.230                                                            
   DEXC   =    0.000                                                            
   RMAX   =    2.653    core radius for proj-oper                               
   RAUG   =    1.300    factor for augmentation sphere                          
   RDEP   =    2.734    radius for radial grids                                 
   RDEPT  =    2.103    core radius for aug-charge                              
                                                                                
   Atomic configuration                                                         
   12 entries                                                                   
     n  l   j            E        occ.                                          
     1  0  0.50    -24164.6631   2.0000                                         
     2  0  0.50     -3530.9218   2.0000                                         
     2  1  1.50     -3165.6822   6.0000                                         
     3  0  0.50      -639.4577   2.0000                                         
     3  1  1.50      -519.4532   6.0000                                         
     3  2  2.50      -328.9757  10.0000                                         
     4  0  0.50       -88.7014   2.0000                                         
     4  1  1.50       -54.4540   6.0000                                         
     4  2  2.50        -6.6878   9.0000                                         
     5  0  0.50        -4.3543   1.0000                                         
     5  1  0.50        -1.3606   0.0000                                         
     4  3  2.50        -1.3606   0.0000                                         
   Description                                                                  
     l       E           TYP  RCUT    TYP  RCUT                                 
     2     -6.6878251     23  2.400                                             
     2     -8.0484077     23  2.400                                             
     0     -4.3542939     23  2.400                                             
     0      4.3406793     23  2.400                                             
     1     -4.0817478     23  2.600                                             
     1     15.8380318     23  2.600                                             
     3     -4.0817478     23  2.400                                             
  local pseudopotential read in
  partial core-charges read in
  partial kinetic energy density read in
  atomic valenz-charges read in
  non local Contribution for L=           2  read in
    real space projection operators read in
  non local Contribution for L=           2  read in
    real space projection operators read in
  non local Contribution for L=           0  read in
    real space projection operators read in
  non local Contribution for L=           0  read in
    real space projection operators read in
  non local Contribution for L=           1  read in
    real space projection operators read in
  non local Contribution for L=           1  read in
    real space projection operators read in
    PAW grid and wavefunctions read in
 
   number of l-projection  operators is LMAX  =           6
   number of lm-projection operators is LMMAX =          18
 
 Optimization of the real space projectors (new method)

 maximal supplied QI-value         = 34.20
 optimisation between [QCUT,QGAM] = [  9.92, 20.18] = [ 27.55,114.04] Ry 
 Optimized for a Real-space Cutoff    1.34 Angstroem

   l    n(q)    QCUT    max X(q) W(low)/X(q) W(high)/X(q)  e(spline) 
   0      8     9.919    19.460    0.16E-03    0.20E-03    0.36E-06
   0      8     9.919    12.209    0.16E-03    0.20E-03    0.35E-06
   1      8     9.919     4.655    0.19E-03    0.46E-03    0.40E-06
 Optimization of the real space projectors (new method)

 maximal supplied QI-value         = 25.13
 optimisation between [QCUT,QGAM] = [ 10.05, 20.36] = [ 28.30,116.06] Ry 
 Optimized for a Real-space Cutoff    1.70 Angstroem

   l    n(q)    QCUT    max X(q) W(low)/X(q) W(high)/X(q)  e(spline) 
   0     10    10.053    79.467    0.61E-04    0.98E-04    0.61E-06
   0     10    10.053    66.151    0.60E-04    0.98E-04    0.61E-06
   1     10    10.053     8.350    0.17E-03    0.71E-03    0.45E-05
   1     10    10.053     5.531    0.18E-03    0.77E-03    0.49E-05
 Optimization of the real space projectors (new method)

 maximal supplied QI-value         = 24.76
 optimisation between [QCUT,QGAM] = [ 10.15, 20.30] = [ 28.85,115.39] Ry 
 Optimized for a Real-space Cutoff    1.51 Angstroem

   l    n(q)    QCUT    max X(q) W(low)/X(q) W(high)/X(q)  e(spline) 
   0      9    10.150    20.381    0.17E-03    0.18E-03    0.41E-06
   0      9    10.150    15.268    0.18E-03    0.20E-03    0.43E-06
   1      9    10.150     5.964    0.16E-03    0.20E-03    0.36E-06
   1      9    10.150     5.382    0.13E-03    0.16E-03    0.33E-06
 Optimization of the real space projectors (new method)

 maximal supplied QI-value         = 14.36
 optimisation between [QCUT,QGAM] = [ 10.20, 20.39] = [ 29.12,116.47] Ry 
 Optimized for a Real-space Cutoff    1.55 Angstroem

   l    n(q)    QCUT    max X(q) W(low)/X(q) W(high)/X(q)  e(spline) 
   2      9    10.197    59.108    0.12E-03    0.40E-04    0.11E-06
   2      9    10.197    58.101    0.12E-03    0.39E-04    0.12E-06
   0      9    10.197   102.235    0.41E-04    0.86E-05    0.83E-07
   0      9    10.197    58.388    0.37E-04    0.79E-05    0.78E-07
   1      9    10.197    22.191    0.25E-03    0.13E-03    0.84E-07
   1      9    10.197    15.590    0.21E-03    0.11E-03    0.74E-07
  PAW_PBE H 15Jun2001                   :
 energy of atom  1       EATOM=  -12.4884
 kinetic energy error for atom=    0.0098 (will be added to EATOM!!)
  PAW_PBE N 08Apr2002                   :
 energy of atom  2       EATOM= -264.5486
 kinetic energy error for atom=    0.0736 (will be added to EATOM!!)
  PAW_PBE O 08Apr2002                   :
 energy of atom  3       EATOM= -432.3788
 kinetic energy error for atom=    0.1156 (will be added to EATOM!!)
  PAW_PBE Pd 04Jan2005                  :
 energy of atom  4       EATOM= -809.7530
 kinetic energy error for atom=    0.0091 (will be added to EATOM!!)
 
 
 POSCAR: H N O Pd                                
  positions in direct lattice
  velocities in cartesian coordinates
 exchange correlation table for  LEXCH =        8
   RHO(1)=    0.500       N(1)  =     2000
   RHO(2)=  100.500       N(2)  =     4000

 VTST: version 3.1, (03/28/14)

 CHAIN: initializing optimizer
 
 OPT: Using VASP QUASI-newton optimizer
 CHAIN: Read ICHAIN            0
 CHAIN: Running the NEB
 NEB:          SPRING     -5.000000
 NEB:          LCLIMB      T
 NEB:     LTANGENTOLD      F
 NEB:           LDNEB      F
 NEB:        LDNEBORG      F
 NEB:        LNEBCELL      F
 NEB:          EFIRST   -369.502093
 NEB:           ELAST   -369.134419
 
 POSCAR: H N O Pd                                
  positions in direct lattice
  No initial velocities read in
 
 POSCAR: H N O Pd                                
  positions in direct lattice
  No initial velocities read in
 


--------------------------------------------------------------------------------------------------------


 ion  position               nearest neighbor table
   1  0.311  0.445  0.657-   6 1.10  61 1.96
   2  0.433  0.442  0.688-   6 0.99
   3  0.365  0.312  0.676-   6 1.07
   4  0.375  0.199  0.645-   5 1.29  64 2.01  60 2.01
   5  0.375  0.084  0.652-   4 1.29  63 2.31  59 2.31
   6  0.351  0.404  0.688-   2 0.99   3 1.07   1 1.10
   7  0.125  0.125  0.403-  10 2.75  19 2.75  11 2.75   8 2.75  23 2.75  24 2.76  27 2.76  28 2.76

   8  0.125  0.375  0.403-  20 2.75   9 2.75  12 2.75   7 2.75  24 2.75  25 2.76  29 2.76  28 2.76

   9  0.125  0.625  0.403-  10 2.74  21 2.75  13 2.75   8 2.75  25 2.75  29 2.76  30 2.76  26 2.76

  10  0.125  0.875  0.403-   9 2.74   7 2.75  22 2.75  14 2.75  26 2.75  23 2.75  30 2.76  27 2.76

  11  0.375  0.125  0.403-  14 2.75  15 2.75   7 2.75  12 2.75  31 2.75  27 2.76  32 2.76  28 2.76

  12  0.375  0.375  0.403-  16 2.75  13 2.75   8 2.75  11 2.75  32 2.76  28 2.76  33 2.76  29 2.76

  13  0.375  0.625  0.403-  14 2.74  17 2.75   9 2.75  12 2.75  34 2.76  33 2.76  29 2.76  30 2.76

  14  0.375  0.875  0.403-  13 2.74  11 2.75  18 2.75  10 2.75  34 2.75  31 2.75  27 2.75  30 2.76

  15  0.625  0.125  0.403-  19 2.75  18 2.75  11 2.75  16 2.75  35 2.75  31 2.75  32 2.76  36 2.76

  16  0.625  0.375  0.403-  20 2.75  12 2.75  17 2.75  15 2.75  36 2.75  33 2.75  32 2.76  37 2.76

  17  0.625  0.625  0.403-  18 2.74  21 2.75  13 2.75  16 2.75  37 2.75  33 2.75  34 2.76  38 2.76

  18  0.625  0.875  0.403-  17 2.74  15 2.75  22 2.75  14 2.75  34 2.75  38 2.75  35 2.75  31 2.76

  19  0.875  0.125  0.403-  15 2.75  22 2.75   7 2.75  20 2.75  35 2.75  23 2.75  24 2.76  36 2.76

  20  0.875  0.375  0.403-  16 2.75   8 2.75  21 2.75  19 2.75  36 2.75  24 2.75  37 2.76  25 2.76

  21  0.875  0.625  0.403-  22 2.74  17 2.75   9 2.75  20 2.75  37 2.75  25 2.75  26 2.76  38 2.76

  22  0.875  0.875  0.403-  21 2.74  19 2.75  18 2.75  10 2.75  26 2.75  23 2.75  38 2.75  35 2.75

  23  0.000  0.000  0.468-  26 2.74  27 2.75  39 2.75  54 2.75  35 2.75   7 2.75  51 2.75  10 2.75
                            24 2.75  19 2.75  22 2.75  42 2.77
  24  0.000  0.251  0.468-  25 2.74  39 2.74  51 2.74  28 2.75   8 2.75  23 2.75  36 2.75  20 2.75
                            52 2.75   7 2.76  19 2.76  40 2.77
  25  0.000  0.501  0.468-  24 2.74  29 2.74  37 2.74  41 2.75  52 2.75  26 2.75   9 2.75  53 2.75
                            21 2.75   8 2.76  20 2.76  40 2.78
  26  0.000  0.751  0.468-  23 2.74  30 2.74  54 2.74  38 2.75  10 2.75  25 2.75  41 2.75  22 2.75
                            53 2.75   9 2.76  21 2.76  42 2.78
  27  0.250  0.000  0.468-  31 2.74  30 2.74  23 2.75  43 2.75  28 2.75  42 2.75  39 2.75  14 2.75
                            11 2.76  10 2.76   7 2.76  46 2.76
  28  0.250  0.250  0.468-  32 2.74  29 2.74  39 2.74  24 2.75  27 2.75  43 2.75  40 2.75  44 2.75
                            12 2.76  11 2.76   8 2.76   7 2.76
  29  0.250  0.500  0.468-  28 2.74  25 2.74  30 2.75  45 2.75  33 2.75  41 2.75   8 2.76   9 2.76
                            12 2.76  13 2.76  40 2.76  44 2.76
  30  0.250  0.750  0.468-  26 2.74  27 2.74  41 2.75  45 2.75  29 2.75  34 2.75  10 2.76  14 2.76
                             9 2.76  46 2.76  13 2.76  42 2.76
  31  0.500  0.000  0.468-  27 2.74  34 2.74  35 2.74  43 2.75  32 2.75  50 2.75  47 2.75  11 2.75
                            15 2.75  14 2.75  18 2.76  46 2.76
  32  0.500  0.250  0.468-  28 2.74  33 2.74  36 2.74  31 2.75  47 2.75  43 2.75  44 2.75  48 2.75
                            12 2.76  11 2.76  16 2.76  15 2.76
  33  0.500  0.500  0.468-  32 2.74  37 2.75  45 2.75  29 2.75  34 2.75  49 2.75  16 2.75  17 2.75
                            12 2.76  13 2.76  44 2.76  48 2.76
  34  0.500  0.750  0.468-  38 2.74  31 2.74  49 2.75  30 2.75  33 2.75  45 2.75  18 2.75  14 2.75
                            17 2.76  13 2.76  46 2.76  50 2.77
  35  0.750  0.000  0.468-  38 2.74  31 2.74  47 2.75  51 2.75  23 2.75  54 2.75  15 2.75  19 2.75
                            36 2.75  18 2.75  22 2.75  50 2.77
  36  0.750  0.251  0.468-  37 2.74  51 2.74  47 2.74  32 2.74  16 2.75  20 2.75  24 2.75  35 2.75
                            52 2.76  15 2.76  48 2.76  19 2.76
  37  0.750  0.501  0.468-  36 2.74  25 2.74  33 2.75  49 2.75  21 2.75  38 2.75  53 2.75  17 2.75
                            52 2.75  20 2.76  16 2.76  48 2.78
  38  0.750  0.751  0.468-  35 2.74  49 2.74  34 2.74  54 2.74  26 2.75  37 2.75  18 2.75  53 2.75
                            22 2.75  17 2.76  21 2.76  50 2.78
  39  0.125  0.125  0.533-  42 2.73  40 2.73  51 2.74  24 2.74  28 2.74  23 2.75  27 2.75  43 2.75
                            55 2.76  56 2.76  60 2.79  59 2.80
  40  0.126  0.374  0.534-  44 2.73  39 2.73  56 2.75  28 2.75  41 2.76  52 2.76  29 2.76  57 2.76
                            60 2.76  61 2.76  24 2.77  25 2.78
  41  0.125  0.625  0.533-  53 2.74  30 2.75  25 2.75  62 2.75  45 2.75  26 2.75  29 2.75  57 2.75
                            40 2.76  58 2.76  42 2.76  61 2.79
  42  0.127  0.877  0.534-  46 2.73  59 2.73  39 2.73  27 2.75  55 2.75  58 2.76  62 2.76  41 2.76
                            30 2.76  54 2.76  23 2.77  26 2.78
  43  0.375  0.124  0.533-  46 2.74  31 2.75  27 2.75  47 2.75  44 2.75  28 2.75  32 2.75  39 2.75
                            60 2.82  63 2.82  59 2.83  64 2.83
  44  0.375  0.375  0.533-  48 2.73  40 2.73  45 2.75  43 2.75  32 2.75  28 2.75  65 2.76  33 2.76
                            29 2.76  61 2.76  60 2.82  64 2.82
  45  0.375  0.625  0.533-  44 2.75  46 2.75  30 2.75  29 2.75  62 2.75  33 2.75  41 2.75  65 2.75
                            49 2.75  34 2.75  66 2.76  61 2.77
  46  0.375  0.875  0.533-  50 2.73  42 2.73  43 2.74  45 2.75  66 2.76  34 2.76  30 2.76  27 2.76
                            31 2.76  62 2.76  59 2.80  63 2.80
  47  0.625  0.126  0.533-  48 2.73  50 2.73  51 2.74  36 2.74  32 2.75  35 2.75  43 2.75  31 2.75
                            68 2.76  67 2.76  63 2.80  64 2.80
  48  0.624  0.374  0.534-  47 2.73  44 2.73  65 2.74  68 2.74  32 2.75  36 2.76  49 2.76  52 2.76
                            33 2.76  69 2.77  64 2.77  37 2.78
  49  0.626  0.626  0.533-  38 2.74  53 2.74  37 2.75  34 2.75  65 2.75  45 2.75  33 2.75  70 2.76
                            66 2.76  48 2.76  50 2.76  69 2.76
  50  0.623  0.877  0.534-  46 2.73  47 2.73  63 2.74  31 2.75  66 2.75  67 2.75  70 2.75  49 2.76
                            54 2.76  34 2.77  35 2.77  38 2.78
  51  0.875  0.126  0.533-  39 2.74  47 2.74  36 2.74  24 2.74  52 2.75  35 2.75  23 2.75  54 2.75
                            55 2.75  67 2.75  68 2.76  56 2.76
  52  0.875  0.376  0.533-  53 2.74  51 2.75  25 2.75  37 2.75  24 2.75  36 2.76  56 2.76  69 2.76
                            68 2.76  40 2.76  48 2.76  57 2.76
  53  0.875  0.625  0.533-  52 2.74  41 2.74  49 2.74  54 2.75  25 2.75  37 2.75  26 2.75  38 2.75
                            69 2.75  70 2.75  58 2.76  57 2.76
  54  0.875  0.875  0.533-  38 2.74  26 2.74  53 2.75  23 2.75  35 2.75  51 2.75  55 2.75  67 2.75
                            70 2.75  58 2.76  42 2.76  50 2.76
  55  0.999  0.001  0.598-  67 2.71  59 2.72  56 2.73  51 2.75  58 2.75  54 2.75  42 2.75  39 2.76

  56  0.999  0.250  0.598-  60 2.72  68 2.73  55 2.73  40 2.75  57 2.75  52 2.76  51 2.76  39 2.76

  57  0.001  0.501  0.598-  58 2.74  69 2.75  61 2.75  41 2.75  56 2.75  40 2.76  53 2.76  52 2.76

  58  1.000  0.751  0.598-  70 2.74  57 2.74  62 2.75  55 2.75  53 2.76  42 2.76  54 2.76  41 2.76

  59  0.246  0.998  0.600-   5 2.31  55 2.72  42 2.73  62 2.75  60 2.76  46 2.80  39 2.80  43 2.83
                            63 2.83
  60  0.247  0.249  0.600-   4 2.01  56 2.72  61 2.75  59 2.76  40 2.76  39 2.79  64 2.82  44 2.82
                            43 2.82
  61  0.251  0.500  0.599-   1 1.96  62 2.72  65 2.74  57 2.75  60 2.75  40 2.76  44 2.76  45 2.77
                            41 2.79
  62  0.250  0.748  0.598-  61 2.72  66 2.74  41 2.75  45 2.75  59 2.75  58 2.75  42 2.76  46 2.76

  63  0.504  0.999  0.600-   5 2.31  67 2.72  50 2.74  66 2.74  64 2.77  47 2.80  46 2.80  43 2.82
                            59 2.83
  64  0.503  0.250  0.601-   4 2.01  68 2.72  65 2.76  63 2.77  48 2.77  47 2.80  60 2.82  44 2.82
                            43 2.83
  65  0.501  0.501  0.598-  66 2.72  48 2.74  61 2.74  69 2.74  49 2.75  45 2.75  44 2.76  64 2.76

  66  0.500  0.749  0.598-  65 2.72  63 2.74  62 2.74  70 2.75  50 2.75  45 2.76  46 2.76  49 2.76

  67  0.752  0.001  0.598-  55 2.71  63 2.72  68 2.74  51 2.75  70 2.75  54 2.75  50 2.75  47 2.76

  68  0.751  0.250  0.598-  64 2.72  56 2.73  67 2.74  48 2.74  69 2.75  52 2.76  51 2.76  47 2.76

  69  0.751  0.501  0.598-  70 2.74  65 2.74  57 2.75  68 2.75  53 2.75  52 2.76  49 2.76  48 2.77

  70  0.750  0.751  0.598-  58 2.74  69 2.74  66 2.75  67 2.75  54 2.75  50 2.75  53 2.75  49 2.76

 
  LATTYP: Found a simple tetragonal cell.
 ALAT       =    10.9820000000
 C/A-ratio  =     2.7317428519
  
  Lattice vectors:
  
 A1 = (  10.9820000000,   0.0000000000,   0.0000000000)
 A2 = (   0.0000000000,  10.9820000000,   0.0000000000)
 A3 = (   0.0000000000,   0.0000000000,  30.0000000000)


Analysis of symmetry for initial positions (statically):
=====================================================================
 Subroutine PRICEL returns:
 Original cell was already a primitive cell.
 

 Routine SETGRP: Setting up the symmetry group for a 
 simple tetragonal supercell.


 Subroutine GETGRP returns: Found  1 space group operations
 (whereof  1 operations were pure point group operations)
 out of a pool of 16 trial point group operations.


The static configuration has the point symmetry C_1 .


Analysis of symmetry for dynamics (positions and initial velocities):
=====================================================================
 Subroutine PRICEL returns:
 Original cell was already a primitive cell.
 

 Routine SETGRP: Setting up the symmetry group for a 
 simple tetragonal supercell.


 Subroutine GETGRP returns: Found  1 space group operations
 (whereof  1 operations were pure point group operations)
 out of a pool of 16 trial point group operations.


The dynamic configuration has the point symmetry C_1 .


Analysis of constrained symmetry for selective dynamics:
=====================================================================
 Subroutine PRICEL returns:
 Original cell was already a primitive cell.
 

 Routine SETGRP: Setting up the symmetry group for a 
 simple tetragonal supercell.


 Subroutine GETGRP returns: Found  1 space group operations
 (whereof  1 operations were pure point group operations)
 out of a pool of 16 trial point group operations.


The constrained configuration has the point symmetry C_1 .


Analysis of structural, dynamic, and magnetic symmetry:
=====================================================================
 Subroutine PRICEL returns:
 Original cell was already a primitive cell.
 

 Routine SETGRP: Setting up the symmetry group for a 
 simple tetragonal supercell.


 Subroutine GETGRP returns: Found  1 space group operations
 (whereof  1 operations were pure point group operations)
 out of a pool of 16 trial point group operations.


The magnetic configuration has the point symmetry C_1 .


 Subroutine INISYM returns: Found  1 space group operations
 (whereof  1 operations are pure point group operations),
 and found     1 'primitive' translations

 
 
 KPOINTS: K-Point Grid                            

Automatic generation of k-mesh.
Space group operators:
 irot       det(A)        alpha          n_x          n_y          n_z        tau_x        tau_y        tau_z
    1     1.000000     0.000001     1.000000     0.000000     0.000000     0.000000     0.000000     0.000000
 
 Subroutine IBZKPT returns following result:
 ===========================================
 
 Found      8 irreducible k-points:
 
 Following reciprocal coordinates:
            Coordinates               Weight
  0.125000  0.125000  0.000000      2.000000
  0.375000  0.125000  0.000000      2.000000
 -0.375000  0.125000  0.000000      2.000000
 -0.125000  0.125000  0.000000      2.000000
  0.125000  0.375000  0.000000      2.000000
  0.375000  0.375000  0.000000      2.000000
 -0.375000  0.375000  0.000000      2.000000
 -0.125000  0.375000  0.000000      2.000000
 
 Following cartesian coordinates:
            Coordinates               Weight
  0.011382  0.011382  0.000000      2.000000
  0.034147  0.011382  0.000000      2.000000
 -0.034147  0.011382  0.000000      2.000000
 -0.011382  0.011382  0.000000      2.000000
  0.011382  0.034147  0.000000      2.000000
  0.034147  0.034147  0.000000      2.000000
 -0.034147  0.034147  0.000000      2.000000
 -0.011382  0.034147  0.000000      2.000000
 


--------------------------------------------------------------------------------------------------------




 Dimension of arrays:
   k-points           NKPTS =      8   k-points in BZ     NKDIM =      8   number of bands    NBANDS=    432
   number of dos      NEDOS =   1200   number of ions     NIONS =     70
   non local maximal  LDIM  =      6   non local SUM 2l+1 LMDIM =     18
   total plane-waves  NPLWV = ******
   max r-space proj   IRMAX =   5807   max aug-charges    IRDMAX=  13820
   dimension x,y,z NGX =    72 NGY =   72 NGZ =  196
   dimension x,y,z NGXF=   144 NGYF=  144 NGZF=  392
   support grid    NGXF=   144 NGYF=  144 NGZF=  392
   ions per type =               3   1   2  64
   NGX,Y,Z   is equivalent  to a cutoff of  10.90, 10.90, 10.86 a.u.
   NGXF,Y,Z  is equivalent  to a cutoff of  21.80, 21.80, 21.72 a.u.

 SYSTEM =  Pd_111_surface                          
 POSCAR =  H N O Pd                                

 Startparameter for this run:
   NWRITE =      2    write-flag & timer
   PREC   = accura    normal or accurate (medium, high low for compatibility)
   ISTART =      0    job   : 0-new  1-cont  2-samecut
   ICHARG =      2    charge: 1-file 2-atom 10-const
   ISPIN  =      2    spin polarized calculation?
   LNONCOLLINEAR =      F non collinear calculations
   LSORBIT =      F    spin-orbit coupling
   INIWAV =      1    electr: 0-lowe 1-rand  2-diag
   LASPH  =      F    aspherical Exc in radial PAW
   METAGGA=      F    non-selfconsistent MetaGGA calc.

 Electronic Relaxation 1
   ENCUT  =  400.0 eV  29.40 Ry    5.42 a.u.  17.91 17.91 48.92*2*pi/ulx,y,z
   ENINI  =  400.0     initial cutoff
   ENAUG  =  627.1 eV  augmentation charge cutoff
   NELM   =    100;   NELMIN=  2; NELMDL= -5     # of ELM steps 
   EDIFF  = 0.1E-04   stopping-criterion for ELM
   LREAL  =      T    real-space projection
   NLSPLINE    = F    spline interpolate recip. space projectors
   LCOMPAT=      F    compatible to vasp.4.4
   GGA_COMPAT  = T    GGA compatible to vasp.4.4-vasp.4.6
   LMAXPAW     = -100 max onsite density
   LMAXMIX     =    2 max onsite mixed and CHGCAR
   VOSKOWN=      0    Vosko Wilk Nusair interpolation
   ROPT   =   -0.00025  -0.00025  -0.00025  -0.00025
 Ionic relaxation
   EDIFFG = -.5E-01   stopping-criterion for IOM
   NSW    =    300    number of steps for IOM
   NBLOCK =      1;   KBLOCK =    300    inner block; outer block 
   IBRION =      1    ionic relax: 0-MD 1-quasi-New 2-CG
   NFREE  =      0    steps in history (QN), initial steepest desc. (CG)
   ISIF   =      2    stress and relaxation
   IWAVPR =     11    prediction:  0-non 1-charg 2-wave 3-comb
   ISYM   =      2    0-nonsym 1-usesym 2-fastsym
   LCORR  =      T    Harris-Foulkes like correction to forces

   POTIM  = 0.3000    time-step for ionic-motion
   TEIN   =    0.0    initial temperature
   TEBEG  =    0.0;   TEEND  =   0.0 temperature during run
   SMASS  =  -3.00    Nose mass-parameter (am)
   estimated Nose-frequenzy (Omega)   =  0.10E-29 period in steps =****** mass=  -0.276E-26a.u.
   SCALEE = 1.0000    scale energy and forces
   NPACO  =    256;   APACO  = 16.0  distance and # of slots for P.C.
   PSTRESS=    0.0 pullay stress

  Mass of Ions in am
   POMASS =   1.00 14.00 16.00106.42
  Ionic Valenz
   ZVAL   =   1.00  5.00  6.00 10.00
  Atomic Wigner-Seitz radii
   RWIGS  =  -1.00 -1.00 -1.00 -1.00
  virtual crystal weights 
   VCA    =   1.00  1.00  1.00  1.00
   NELECT =     660.0000    total number of electrons
   NUPDOWN=      -1.0000    fix difference up-down

 DOS related values:
   EMIN   =  10.00;   EMAX   =-10.00  energy-range for DOS
   EFERMI =   0.00
   ISMEAR =     1;   SIGMA  =   0.20  broadening in eV -4-tet -1-fermi 0-gaus

 Electronic relaxation 2 (details)
   IALGO  =     68    algorithm
   LDIAG  =      T    sub-space diagonalisation (order eigenvalues)
   LSUBROT=      F    optimize rotation matrix (better conditioning)
   TURBO    =      0    0=normal 1=particle mesh
   IRESTART =      0    0=no restart 2=restart with 2 vectors
   NREBOOT  =      0    no. of reboots
   NMIN     =      0    reboot dimension
   EREF     =   0.00    reference energy to select bands
   IMIX   =      4    mixing-type and parameters
     AMIX     =   0.40;   BMIX     =  1.00
     AMIX_MAG =   1.60;   BMIX_MAG =  1.00
     AMIN     =   0.10
     WC   =   100.;   INIMIX=   1;  MIXPRE=   1;  MAXMIX= -45

 Intra band minimization:
   WEIMIN = 0.0010     energy-eigenvalue tresh-hold
   EBREAK =  0.58E-08  absolut break condition
   DEPER  =   0.30     relativ break condition  

   TIME   =   0.40     timestep for ELM

  volume/ion in A,a.u.               =      51.69       348.80
  Fermi-wavevector in a.u.,A,eV,Ry     =   0.928456  1.754528 11.728643  0.862031
  Thomas-Fermi vector in A             =   2.054635
 
 Write flags
   LWAVE        =      F    write WAVECAR
   LDOWNSAMPLE  =      F    k-point downsampling of WAVECAR
   LCHARG       =      F    write CHGCAR
   LVTOT        =      F    write LOCPOT, total local potential
   LVHAR        =      F    write LOCPOT, Hartree potential only
   LELF         =      F    write electronic localiz. function (ELF)
   LORBIT       =     11    0 simple, 1 ext, 2 COOP (PROOUT), +10 PAW based schemes


 Dipole corrections
   LMONO  =      F    monopole corrections only (constant potential shift)
   LDIPOL =      T    correct potential (dipole corrections)
   IDIPOL =      3    1-x, 2-y, 3-z, 4-all directions 
   EPSILON=  1.0000000 bulk dielectric constant

 Exchange correlation treatment:
   GGA     =    --    GGA type
   LEXCH   =     8    internal setting for exchange type
   VOSKOWN=      0    Vosko Wilk Nusair interpolation
   LHFCALC =     F    Hartree Fock is set to
   LHFONE  =     F    Hartree Fock one center treatment
   AEXX    =    0.0000 exact exchange contribution

 Linear response parameters
   LEPSILON=     F    determine dielectric tensor
   LRPA    =     F    only Hartree local field effects (RPA)
   LNABLA  =     F    use nabla operator in PAW spheres
   LVEL    =     F    velocity operator in full k-point grid
   LINTERFAST=   F  fast interpolation
   KINTER  =     0    interpolate to denser k-point grid
   CSHIFT  =0.1000    complex shift for real part using Kramers Kronig
   OMEGAMAX=  -1.0    maximum frequency
   DEG_THRESHOLD= 0.2000000E-02 threshold for treating states as degnerate
   RTIME   =   -0.100 relaxation time in fs
  (WPLASMAI=    0.000 imaginary part of plasma frequency in eV, 0.658/RTIME)
   DFIELD  = 0.0000000 0.0000000 0.0000000 field for delta impulse in time
 
 Orbital magnetization related:
   ORBITALMAG=     F  switch on orbital magnetization
   LCHIMAG   =     F  perturbation theory with respect to B field
   DQ        =  0.001000  dq finite difference perturbation B field
   LLRAUG    =     F  two centre corrections for induced B field



--------------------------------------------------------------------------------------------------------


 quasi-Newton-method for relaxation of ions
   using selective dynamics as specified on POSCAR
 charge density and potential will be updated during run
 spin polarized calculation
 RMM-DIIS sequential band-by-band and
  variant of blocked Davidson during initial phase
 perform sub-space diagonalisation
    before iterative eigenvector-optimisation
 modified Broyden-mixing scheme, WC =      100.0
 initial mixing is a Kerker type mixing with AMIX =  0.4000 and BMIX =      1.0000
 Hartree-type preconditioning will be used
 using additional bands          102
 real space projection scheme for non local part
 use partial core corrections
 calculate Harris-corrections to forces 
   (improved forces if not selfconsistent)
 use gradient corrections 
 use of overlap-Matrix (Vanderbilt PP)
 Methfessel and Paxton  Order N= 1 SIGMA  =   0.20


--------------------------------------------------------------------------------------------------------


  energy-cutoff  :      400.00
  volume of cell :     3618.13
      direct lattice vectors                 reciprocal lattice vectors
    10.982000000  0.000000000  0.000000000     0.091058095  0.000000000  0.000000000
     0.000000000 10.982000000  0.000000000     0.000000000  0.091058095  0.000000000
     0.000000000  0.000000000 30.000000000     0.000000000  0.000000000  0.033333333

  length of vectors
    10.982000000 10.982000000 30.000000000     0.091058095  0.091058095  0.033333333


 
 k-points in units of 2pi/SCALE and weight: K-Point Grid                            
   0.01138226  0.01138226  0.00000000       0.125
   0.03414679  0.01138226  0.00000000       0.125
  -0.03414679  0.01138226  0.00000000       0.125
  -0.01138226  0.01138226  0.00000000       0.125
   0.01138226  0.03414679  0.00000000       0.125
   0.03414679  0.03414679  0.00000000       0.125
  -0.03414679  0.03414679  0.00000000       0.125
  -0.01138226  0.03414679  0.00000000       0.125
 
 k-points in reciprocal lattice and weights: K-Point Grid                            
   0.12500000  0.12500000  0.00000000       0.125
   0.37500000  0.12500000  0.00000000       0.125
  -0.37500000  0.12500000  0.00000000       0.125
  -0.12500000  0.12500000  0.00000000       0.125
   0.12500000  0.37500000  0.00000000       0.125
   0.37500000  0.37500000  0.00000000       0.125
  -0.37500000  0.37500000  0.00000000       0.125
  -0.12500000  0.37500000  0.00000000       0.125
 
 position of ions in fractional coordinates (direct lattice) 
   0.31092784  0.44491845  0.65740811
   0.43301595  0.44207159  0.68837379
   0.36459629  0.31238157  0.67622364
   0.37491867  0.19949067  0.64453401
   0.37503502  0.08368082  0.65239001
   0.35141699  0.40422848  0.68760288
   0.12496989  0.12497120  0.40279576
   0.12495811  0.37504526  0.40277793
   0.12497852  0.62508062  0.40281466
   0.12498940  0.87500336  0.40283106
   0.37499599  0.12496782  0.40279183
   0.37499801  0.37506079  0.40277487
   0.37499921  0.62509108  0.40282509
   0.37499753  0.87499915  0.40283885
   0.62501687  0.12497022  0.40279679
   0.62502014  0.37505376  0.40278557
   0.62499581  0.62507769  0.40282586
   0.62499200  0.87499350  0.40283672
   0.87498890  0.12497574  0.40280354
   0.87498103  0.37503959  0.40279281
   0.87497683  0.62506763  0.40281925
   0.87498340  0.87500004  0.40282978
   0.00018689  0.00020937  0.46784342
   0.00036327  0.25081103  0.46793441
   0.00014196  0.50052359  0.46788732
   0.00009481  0.75091615  0.46799183
   0.25015766  0.00003704  0.46802806
   0.25040688  0.25019952  0.46811376
   0.24987094  0.49989850  0.46803545
   0.24980784  0.75017848  0.46812556
   0.49993241  0.00015084  0.46796494
   0.49978372  0.25015434  0.46801573
   0.50024487  0.49993983  0.46798527
   0.50011752  0.75035655  0.46798515
   0.74981868  0.00028167  0.46786815
   0.74973417  0.25091260  0.46796723
   0.75020456  0.50057814  0.46790129
   0.74983948  0.75092612  0.46815402
   0.12455021  0.12549360  0.53265086
   0.12648910  0.37442580  0.53362568
   0.12471434  0.62538785  0.53287139
   0.12674739  0.87662959  0.53369179
   0.37525971  0.12443798  0.53294344
   0.37531407  0.37489304  0.53325544
   0.37509523  0.62492073  0.53283627
   0.37517968  0.87502260  0.53339908
   0.62545401  0.12568222  0.53273149
   0.62404505  0.37433043  0.53355560
   0.62556737  0.62559809  0.53273838
   0.62343153  0.87693256  0.53370114
   0.87501947  0.12596494  0.53253517
   0.87538929  0.37601233  0.53297113
   0.87535503  0.62533594  0.53290793
   0.87513309  0.87547575  0.53277119
   0.99856845  0.00127477  0.59797564
   0.99949814  0.25023643  0.59824474
   0.00098955  0.50100134  0.59840536
   0.99976919  0.75073519  0.59813369
   0.24645961  0.99790481  0.60005154
   0.24688379  0.24939258  0.60025481
   0.25136691  0.49985953  0.59906933
   0.25019488  0.74761437  0.59831992
   0.50391654  0.99858507  0.60014081
   0.50325348  0.25047529  0.60080638
   0.50101552  0.50140334  0.59790084
   0.50012732  0.74882064  0.59834325
   0.75183230  0.00127012  0.59808346
   0.75056497  0.25034812  0.59810907
   0.75082738  0.50104581  0.59833300
   0.75035601  0.75058085  0.59798155
 
 position of ions in cartesian coordinates  (Angst):
   3.41460958  4.88609438 19.72224336
   4.75538113  4.85483019 20.65121369
   4.00399645  3.43057438 20.28670907
   4.11735679  2.19080649 19.33602041
   4.11863462  0.91898275 19.57170019
   3.85926140  4.43923719 20.62808635
   1.37241937  1.37243376 12.08387285
   1.37228991  4.11874704 12.08333785
   1.37251409  6.86463540 12.08443993
   1.37263361  9.60928688 12.08493188
   4.11820598  1.37239661 12.08375482
   4.11822813  4.11891762 12.08324601
   4.11824130  6.86475029 12.08475273
   4.11822286  9.60924063 12.08516558
   6.86393526  1.37242296 12.08390356
   6.86397122  4.11884040 12.08356705
   6.86370394  6.86460320 12.08477584
   6.86366217  9.60917861 12.08510153
   9.60912807  1.37248360 12.08410630
   9.60904163  4.11868481 12.08378430
   9.60899552  6.86449268 12.08457755
   9.60906772  9.60925047 12.08489334
   0.00205237  0.00229930 14.03530273
   0.00398940  2.75440672 14.03803224
   0.00155903  5.49675005 14.03661966
   0.00104125  8.24656119 14.03975490
   2.74723145  0.00040680 14.04084166
   2.74996839  2.74769114 14.04341267
   2.74408267  5.48988531 14.04106365
   2.74338969  8.23846009 14.04376670
   5.49025774  0.00165648 14.03894807
   5.48862477  2.74719500 14.04047203
   5.49368920  5.49033920 14.03955820
   5.49229065  8.24041558 14.03955453
   8.23450879  0.00309328 14.03604447
   8.23358066  2.75552221 14.03901704
   8.23874648  5.49734916 14.03703870
   8.23473721  8.24667070 14.04462070
   1.36781038  1.37817066 15.97952591
   1.38910325  4.11194413 16.00877050
   1.36961283  6.86800934 15.98614157
   1.39193981  9.62714618 16.01075375
   4.12110219  1.36657786 15.98830315
   4.12169907  4.11707540 15.99766317
   4.11929580  6.86287941 15.98508808
   4.12022322  9.60949820 16.00197252
   6.86873593  1.38024214 15.98194456
   6.85326269  4.11089679 16.00666787
   6.86998083  6.87031824 15.98215153
   6.84652507  9.63047336 16.01103434
   9.60946385  1.38334693 15.97605522
   9.61352514  4.12936741 15.98913404
   9.61314891  6.86743929 15.98723798
   9.61071164  9.61447471 15.98313561
  10.96627873  0.01399953 17.93926912
  10.97648860  2.74809647 17.94734223
   0.01086726  5.50199668 17.95216074
  10.97946520  8.24457388 17.94401074
   2.70661946 10.95899061 18.00154616
   2.71127779  2.73882934 18.00764438
   2.76051143  5.48945740 17.97207981
   2.74764013  8.21030098 17.94959768
   5.53401149 10.96646123 18.00422441
   5.52672973  2.75071967 18.02419155
   5.50215243  5.50641147 17.93702524
   5.49239823  8.22354826 17.95029744
   8.25662233  0.01394846 17.94250382
   8.24270445  2.74932304 17.94327214
   8.24558634  5.50248503 17.94998986
   8.24040968  8.24287890 17.93944652
 


--------------------------------------------------------------------------------------------------------


 k-point  1 :   0.1250 0.1250 0.0000  plane waves:   65671
 k-point  2 :   0.3750 0.1250 0.0000  plane waves:   65719
 k-point  3 :  -0.3750 0.1250 0.0000  plane waves:   65719
 k-point  4 :  -0.1250 0.1250 0.0000  plane waves:   65671
 k-point  5 :   0.1250 0.3750 0.0000  plane waves:   65719
 k-point  6 :   0.3750 0.3750 0.0000  plane waves:   65776
 k-point  7 :  -0.3750 0.3750 0.0000  plane waves:   65776
 k-point  8 :  -0.1250 0.3750 0.0000  plane waves:   65719

 maximum and minimum number of plane-waves per node :      6612     6539

 maximum number of plane-waves:     65776
 maximum index in each direction: 
   IXMAX=   18   IYMAX=   17   IZMAX=   48
   IXMIN=  -18   IYMIN=  -18   IZMIN=  -48


 real space projection operators:
  total allocation   :      39655.46 KBytes
  max/ min on nodes  :       4447.80       3776.80


 parallel 3D FFT for wavefunctions:
    minimum data exchange during FFTs selected (reduces bandwidth)
 parallel 3D FFT for charge:
    minimum data exchange during FFTs selected (reduces bandwidth)


 total amount of memory used by VASP MPI-rank0   484200. kBytes
=======================================================================

   base      :      30000. kBytes
   nonlr-proj:      12320. kBytes
   fftplans  :      18152. kBytes
   grid      :      52586. kBytes
   one-center:        217. kBytes
   wavefun   :     370925. kBytes
 
     INWAV:  cpu time    0.0000: real time    0.0000
 Broyden mixing: mesh for mixing (old mesh)
   NGX = 35   NGY = 35   NGZ = 97
  (NGX  =144   NGY  =144   NGZ  =392)
  gives a total of 118825 points

 initial charge density was supplied:
 charge density of overlapping atoms calculated
 number of electron     660.0000000 magnetization      70.0000000
 keeping initial charge density in first step


--------------------------------------------------------------------------------------------------------


 Maximum index for non-local projection operator          632
 Maximum index for augmentation-charges         1310 (set IRDMAX)


--------------------------------------------------------------------------------------------------------


 First call to EWALD:  gamma=   0.115
 Maximum number of real-space cells 4x 4x 2
 Maximum number of reciprocal cells 2x 2x 5

    FEWALD:  cpu time    0.0117: real time    0.0058


--------------------------------------- Iteration      1(   1)  ---------------------------------------


    POTLOK:  cpu time    0.7380: real time    0.7453
    SETDIJ:  cpu time    0.0899: real time    0.0604
     EDDAV:  cpu time  266.0225: real time  133.3863
       DOS:  cpu time    0.1116: real time    0.0689
    --------------------------------------------
      LOOP:  cpu time  266.9621: real time  134.2609

 eigenvalue-minimisations  : 14096
 total energy-change (2. order) : 0.4001251E+04  (-0.2458196E+05)
 number of electron     660.0000000 magnetization      70.0000000
 augmentation part      660.0000000 magnetization      70.0000000

 DIPCOR: dipole corrections for dipol
 direction  3 min pos     1,
 dipolmoment           0.000000      0.000000     -0.000147 electrons x Angstroem
 Tr[quadrupol]    -13694.248044

 energy correction for charged system         0.000000 eV
 dipol+quadrupol energy correction           -0.000000 eV
 added-field ion interaction          0.000819 eV  (added to PSCEN)


 Free energy of the ion-electron system (eV)
  ---------------------------------------------------
  alpha Z        PSCENC =       774.60476718
  Ewald energy   TEWEN  =    385698.03555976
  -Hartree energ DENC   =   -439074.75913489
  -exchange      EXHF   =         0.00000000
  -V(xc)+E(xc)   XCENC  =     -1794.44999551
  PAW double counting   =     52528.45871130   -48551.45505577
  entropy T*S    EENTRO =        -0.00766464
  eigenvalues    EBANDS =      1430.77703179
  atomic energy  EATOM  =     52990.04641755
  Solvation  Ediel_sol  =         0.00000000
  ---------------------------------------------------
  free energy    TOTEN  =      4001.25063678 eV

  energy without entropy =     4001.25830142  energy(sigma->0) =     4001.25319166


--------------------------------------------------------------------------------------------------------




--------------------------------------- Iteration      1(   2)  ---------------------------------------


     EDDAV:  cpu time  301.0213: real time  150.8842
       DOS:  cpu time    0.1229: real time    0.0808
    --------------------------------------------
      LOOP:  cpu time  301.1442: real time  150.9650

 eigenvalue-minimisations  : 16504
 total energy-change (2. order) :-0.4080135E+04  (-0.3766896E+04)
 number of electron     660.0000000 magnetization      70.0000000
 augmentation part      660.0000000 magnetization      70.0000000

 DIPCOR: dipole corrections for dipol
 direction  3 min pos     1,
 dipolmoment           0.000000      0.000000     -0.000147 electrons x Angstroem
 Tr[quadrupol]    -13694.248044

 energy correction for charged system         0.000000 eV
 dipol+quadrupol energy correction           -0.000000 eV
 added-field ion interaction          0.000819 eV  (added to PSCEN)


 Free energy of the ion-electron system (eV)
  ---------------------------------------------------
  alpha Z        PSCENC =       774.60476718
  Ewald energy   TEWEN  =    385698.03555976
  -Hartree energ DENC   =   -439074.75913489
  -exchange      EXHF   =         0.00000000
  -V(xc)+E(xc)   XCENC  =     -1794.44999551
  PAW double counting   =     52528.45871130   -48551.45505577
  entropy T*S    EENTRO =        -0.00143418
  eigenvalues    EBANDS =     -2649.36452409
  atomic energy  EATOM  =     52990.04641755
  Solvation  Ediel_sol  =         0.00000000
  ---------------------------------------------------
  free energy    TOTEN  =       -78.88468864 eV

  energy without entropy =      -78.88325446  energy(sigma->0) =      -78.88421058


--------------------------------------------------------------------------------------------------------




--------------------------------------- Iteration      1(   3)  ---------------------------------------


     EDDAV:  cpu time  291.0108: real time  145.8607
       DOS:  cpu time    0.0884: real time    0.0443
    --------------------------------------------
      LOOP:  cpu time  291.0992: real time  145.9050

 eigenvalue-minimisations  : 15592
 total energy-change (2. order) :-0.2660267E+03  (-0.2436759E+03)
 number of electron     660.0000000 magnetization      70.0000000
 augmentation part      660.0000000 magnetization      70.0000000

 DIPCOR: dipole corrections for dipol
 direction  3 min pos     1,
 dipolmoment           0.000000      0.000000     -0.000147 electrons x Angstroem
 Tr[quadrupol]    -13694.248044

 energy correction for charged system         0.000000 eV
 dipol+quadrupol energy correction           -0.000000 eV
 added-field ion interaction          0.000819 eV  (added to PSCEN)


 Free energy of the ion-electron system (eV)
  ---------------------------------------------------
  alpha Z        PSCENC =       774.60476718
  Ewald energy   TEWEN  =    385698.03555976
  -Hartree energ DENC   =   -439074.75913489
  -exchange      EXHF   =         0.00000000
  -V(xc)+E(xc)   XCENC  =     -1794.44999551
  PAW double counting   =     52528.45871130   -48551.45505577
  entropy T*S    EENTRO =         0.14762321
  eigenvalues    EBANDS =     -2915.54029643
  atomic energy  EATOM  =     52990.04641755
  Solvation  Ediel_sol  =         0.00000000
  ---------------------------------------------------
  free energy    TOTEN  =      -344.91140359 eV

  energy without entropy =     -345.05902680  energy(sigma->0) =     -344.96061133


--------------------------------------------------------------------------------------------------------




--------------------------------------- Iteration      1(   4)  ---------------------------------------


     EDDAV:  cpu time  286.2556: real time  143.4741
       DOS:  cpu time    0.0901: real time    0.0452
    --------------------------------------------
      LOOP:  cpu time  286.3456: real time  143.5192

 eigenvalue-minimisations  : 15488
 total energy-change (2. order) :-0.6814345E+01  (-0.6724284E+01)
 number of electron     660.0000000 magnetization      70.0000000
 augmentation part      660.0000000 magnetization      70.0000000

 DIPCOR: dipole corrections for dipol
 direction  3 min pos     1,
 dipolmoment           0.000000      0.000000     -0.000147 electrons x Angstroem
 Tr[quadrupol]    -13694.248044

 energy correction for charged system         0.000000 eV
 dipol+quadrupol energy correction           -0.000000 eV
 added-field ion interaction          0.000819 eV  (added to PSCEN)


 Free energy of the ion-electron system (eV)
  ---------------------------------------------------
  alpha Z        PSCENC =       774.60476718
  Ewald energy   TEWEN  =    385698.03555976
  -Hartree energ DENC   =   -439074.75913489
  -exchange      EXHF   =         0.00000000
  -V(xc)+E(xc)   XCENC  =     -1794.44999551
  PAW double counting   =     52528.45871130   -48551.45505577
  entropy T*S    EENTRO =         0.15063362
  eigenvalues    EBANDS =     -2922.35765206
  atomic energy  EATOM  =     52990.04641755
  Solvation  Ediel_sol  =         0.00000000
  ---------------------------------------------------
  free energy    TOTEN  =      -351.72574881 eV

  energy without entropy =     -351.87638243  energy(sigma->0) =     -351.77596002


--------------------------------------------------------------------------------------------------------




--------------------------------------- Iteration      1(   5)  ---------------------------------------


     EDDAV:  cpu time  318.6961: real time  159.7630
       DOS:  cpu time    0.1331: real time    0.0874
    CHARGE:  cpu time    7.0232: real time    6.7439
    MIXING:  cpu time    0.0406: real time    0.0233
    --------------------------------------------
      LOOP:  cpu time  325.8931: real time  166.6177

 eigenvalue-minimisations  : 17784
 total energy-change (2. order) :-0.2670807E+00  (-0.2665084E+00)
 number of electron     659.9999526 magnetization      67.3963773
 augmentation part      261.1140163 magnetization      53.5733225

 DIPCOR: dipole corrections for dipol
 direction  3 min pos     1,
 dipolmoment           0.000000      0.000000     -0.000147 electrons x Angstroem
 Tr[quadrupol]    -13694.248044

 energy correction for charged system         0.000000 eV
 dipol+quadrupol energy correction           -0.000000 eV
 added-field ion interaction          0.000819 eV  (added to PSCEN)


 Broyden mixing:
  rms(total) = 0.59553E+01    rms(broyden)= 0.59545E+01
  rms(prec ) = 0.60116E+01
  weight for this iteration     100.00

 Free energy of the ion-electron system (eV)
  ---------------------------------------------------
  alpha Z        PSCENC =       774.60476718
  Ewald energy   TEWEN  =    385698.03555976
  -Hartree energ DENC   =   -439074.75913489
  -exchange      EXHF   =         0.00000000
  -V(xc)+E(xc)   XCENC  =     -1794.44999551
  PAW double counting   =     52528.45871130   -48551.45505577
  entropy T*S    EENTRO =         0.15063661
  eigenvalues    EBANDS =     -2922.62473571
  atomic energy  EATOM  =     52990.04641755
  Solvation  Ediel_sol  =         0.00000000
  ---------------------------------------------------
  free energy    TOTEN  =      -351.99282947 eV

  energy without entropy =     -352.14346608  energy(sigma->0) =     -352.04304167


--------------------------------------------------------------------------------------------------------




--------------------------------------- Iteration      1(   6)  ---------------------------------------


    POTLOK:  cpu time    0.8043: real time    0.6967
    SETDIJ:  cpu time    0.0761: real time    0.0465
    EDDIAG:  cpu time   47.5203: real time   23.8197
  RMM-DIIS:  cpu time  173.9676: real time   87.3041
    ORTHCH:  cpu time    6.0475: real time    3.0625
       DOS:  cpu time    0.0927: real time    0.0477
    CHARGE:  cpu time    7.3254: real time    7.0470
    MIXING:  cpu time    0.0360: real time    0.0189
    --------------------------------------------
      LOOP:  cpu time  235.8699: real time  122.0432

 eigenvalue-minimisations  : 13842
 total energy-change (2. order) : 0.3349273E+02  (-0.8773670E+01)
 number of electron     659.9999514 magnetization      64.4301758
 augmentation part      271.7891804 magnetization      48.9802374

 DIPCOR: dipole corrections for dipol
 direction  3 min pos     1,
 dipolmoment           0.000000      0.000000     -0.136153 electrons x Angstroem
 Tr[quadrupol]    -13700.024606

 energy correction for charged system         0.000000 eV
 dipol+quadrupol energy correction           -0.000464 eV
 added-field ion interaction          0.756959 eV  (added to PSCEN)


 Broyden mixing:
  rms(total) = 0.34274E+01    rms(broyden)= 0.34266E+01
  rms(prec ) = 0.35145E+01
  weight for this iteration     100.00

 eigenvalues of (default mixing * dielectric matrix)
  average eigenvalue GAMMA=   0.9873
  0.9873

 Free energy of the ion-electron system (eV)
  ---------------------------------------------------
  alpha Z        PSCENC =       775.36044330
  Ewald energy   TEWEN  =    385698.03555976
  -Hartree energ DENC   =   -438911.55871511
  -exchange      EXHF   =         0.00000000
  -V(xc)+E(xc)   XCENC  =     -1789.79246849
  PAW double counting   =     56439.42287138   -52539.18571178
  entropy T*S    EENTRO =         0.07781214
  eigenvalues    EBANDS =     -2980.90630594
  atomic energy  EATOM  =     52990.04641755
  Solvation  Ediel_sol  =         0.00000000
  ---------------------------------------------------
  free energy    TOTEN  =      -318.50009719 eV

  energy without entropy =     -318.57790933  energy(sigma->0) =     -318.52603457


--------------------------------------------------------------------------------------------------------




--------------------------------------- Iteration      1(   7)  ---------------------------------------


    POTLOK:  cpu time    0.8078: real time    0.6902
    SETDIJ:  cpu time    0.0757: real time    0.0466
    EDDIAG:  cpu time   47.0873: real time   23.6080
  RMM-DIIS:  cpu time  173.8685: real time   87.1825
    ORTHCH:  cpu time    6.0990: real time    3.1020
       DOS:  cpu time    0.1022: real time    0.0512
    CHARGE:  cpu time    7.4668: real time    7.1884
    MIXING:  cpu time    0.0348: real time    0.0174
    --------------------------------------------
      LOOP:  cpu time  235.5420: real time  121.8864

 eigenvalue-minimisations  : 13842
 total energy-change (2. order) :-0.3387209E+02  (-0.4223126E+01)
 number of electron     659.9999481 magnetization      63.0570636
 augmentation part      267.6294688 magnetization      49.1600392

 DIPCOR: dipole corrections for dipol
 direction  3 min pos     1,
 dipolmoment           0.000000      0.000000      1.169444 electrons x Angstroem
 Tr[quadrupol]    -13710.584402

 energy correction for charged system         0.000000 eV
 dipol+quadrupol energy correction           -0.034198 eV
 added-field ion interaction         -6.501641 eV  (added to PSCEN)


 Broyden mixing:
  rms(total) = 0.53217E+01    rms(broyden)= 0.53209E+01
  rms(prec ) = 0.66844E+01
  weight for this iteration     100.00

 eigenvalues of (default mixing * dielectric matrix)
  average eigenvalue GAMMA=   0.7522
  1.1882  0.3162

 Free energy of the ion-electron system (eV)
  ---------------------------------------------------
  alpha Z        PSCENC =       768.06810866
  Ewald energy   TEWEN  =    385698.03555976
  -Hartree energ DENC   =   -439323.94686107
  -exchange      EXHF   =         0.00000000
  -V(xc)+E(xc)   XCENC  =     -1787.88442603
  PAW double counting   =     59258.52561803   -55387.89601617
  entropy T*S    EENTRO =        -0.04991782
  eigenvalues    EBANDS =     -2567.27067040
  atomic energy  EATOM  =     52990.04641755
  Solvation  Ediel_sol  =         0.00000000
  ---------------------------------------------------
  free energy    TOTEN  =      -352.37218748 eV

  energy without entropy =     -352.32226966  energy(sigma->0) =     -352.35554821


--------------------------------------------------------------------------------------------------------




--------------------------------------- Iteration      1(   8)  ---------------------------------------


    POTLOK:  cpu time    0.8175: real time    0.7590
    SETDIJ:  cpu time    0.0682: real time    0.0424
    EDDIAG:  cpu time   47.7440: real time   23.9358
  RMM-DIIS:  cpu time  172.6165: real time   86.5727
    ORTHCH:  cpu time    5.6247: real time    2.8559
       DOS:  cpu time    0.0783: real time    0.0392
    CHARGE:  cpu time    7.4423: real time    7.1644
    MIXING:  cpu time    0.0351: real time    0.0176
    --------------------------------------------
      LOOP:  cpu time  234.4267: real time  121.3871

 eigenvalue-minimisations  : 13831
 total energy-change (2. order) : 0.1054200E+02  (-0.3704523E+01)
 number of electron     659.9999534 magnetization      60.5582115
 augmentation part      268.4230777 magnetization      43.9540300

 DIPCOR: dipole corrections for dipol
 direction  3 min pos     1,
 dipolmoment           0.000000      0.000000     -2.017135 electrons x Angstroem
 Tr[quadrupol]    -13712.762192

 energy correction for charged system         0.000000 eV
 dipol+quadrupol energy correction           -0.101746 eV
 added-field ion interaction         11.214463 eV  (added to PSCEN)


 Broyden mixing:
  rms(total) = 0.42471E+01    rms(broyden)= 0.42465E+01
  rms(prec ) = 0.55715E+01
  weight for this iteration     100.00

 eigenvalues of (default mixing * dielectric matrix)
  average eigenvalue GAMMA=   0.8277
  1.6964  0.6412  0.1457

 Free energy of the ion-electron system (eV)
  ---------------------------------------------------
  alpha Z        PSCENC =       785.71666481
  Ewald energy   TEWEN  =    385698.03555976
  -Hartree energ DENC   =   -439350.26376117
  -exchange      EXHF   =         0.00000000
  -V(xc)+E(xc)   XCENC  =     -1785.81467799
  PAW double counting   =     60120.59638354   -56263.36989789
  entropy T*S    EENTRO =        -0.11225603
  eigenvalues    EBANDS =     -2536.66462412
  atomic energy  EATOM  =     52990.04641755
  Solvation  Ediel_sol  =         0.00000000
  ---------------------------------------------------
  free energy    TOTEN  =      -341.83019154 eV

  energy without entropy =     -341.71793551  energy(sigma->0) =     -341.79277286


--------------------------------------------------------------------------------------------------------




--------------------------------------- Iteration      1(   9)  ---------------------------------------


    POTLOK:  cpu time    0.8132: real time    0.6944
    SETDIJ:  cpu time    0.0696: real time    0.0433
    EDDIAG:  cpu time   47.4509: real time   23.7898
  RMM-DIIS:  cpu time  174.1536: real time   87.3355
    ORTHCH:  cpu time    6.3472: real time    3.2165
       DOS:  cpu time    0.1043: real time    0.0523
    CHARGE:  cpu time    7.3757: real time    7.0960
    MIXING:  cpu time    0.0366: real time    0.0183
    --------------------------------------------
      LOOP:  cpu time  236.3513: real time  122.2462

 eigenvalue-minimisations  : 13856
 total energy-change (2. order) : 0.2714015E+02  (-0.2019466E+01)
 number of electron     659.9999493 magnetization      59.5361566
 augmentation part      272.4288417 magnetization      45.4678798

 DIPCOR: dipole corrections for dipol
 direction  3 min pos     1,
 dipolmoment           0.000000      0.000000     -0.041874 electrons x Angstroem
 Tr[quadrupol]    -13712.928276

 energy correction for charged system         0.000000 eV
 dipol+quadrupol energy correction           -0.000044 eV
 added-field ion interaction          0.232802 eV  (added to PSCEN)


 Broyden mixing:
  rms(total) = 0.42168E+01    rms(broyden)= 0.42155E+01
  rms(prec ) = 0.49740E+01
  weight for this iteration     100.00

 eigenvalues of (default mixing * dielectric matrix)
  average eigenvalue GAMMA=   0.7304
  1.8910  0.6934  0.2193  0.1178

 Free energy of the ion-electron system (eV)
  ---------------------------------------------------
  alpha Z        PSCENC =       774.83670570
  Ewald energy   TEWEN  =    385698.03555976
  -Hartree energ DENC   =   -439329.42137725
  -exchange      EXHF   =         0.00000000
  -V(xc)+E(xc)   XCENC  =     -1781.07061709
  PAW double counting   =     61370.54267548   -57535.63013054
  entropy T*S    EENTRO =        -0.01926840
  eigenvalues    EBANDS =     -2502.01000936
  atomic energy  EATOM  =     52990.04641755
  Solvation  Ediel_sol  =         0.00000000
  ---------------------------------------------------
  free energy    TOTEN  =      -314.69004415 eV

  energy without entropy =     -314.67077575  energy(sigma->0) =     -314.68362135


--------------------------------------------------------------------------------------------------------




--------------------------------------- Iteration      1(  10)  ---------------------------------------


    POTLOK:  cpu time    0.8101: real time    0.6938
    SETDIJ:  cpu time    0.0652: real time    0.0407
    EDDIAG:  cpu time   48.3530: real time   24.2358
  RMM-DIIS:  cpu time  176.2661: real time   88.4125
    ORTHCH:  cpu time    5.9207: real time    2.9675
       DOS:  cpu time    0.1385: real time    0.0938
    CHARGE:  cpu time    7.0938: real time    6.8113
    MIXING:  cpu time    0.0404: real time    0.0203
    --------------------------------------------
      LOOP:  cpu time  238.6878: real time  123.2756

 eigenvalue-minimisations  : 13866
 total energy-change (2. order) : 0.1663054E+02  (-0.8395260E+00)
 number of electron     659.9999512 magnetization      58.0386945
 augmentation part      273.2395534 magnetization      41.4986634

 DIPCOR: dipole corrections for dipol
 direction  3 min pos     1,
 dipolmoment           0.000000      0.000000     -0.425325 electrons x Angstroem
 Tr[quadrupol]    -13712.897676

 energy correction for charged system         0.000000 eV
 dipol+quadrupol energy correction           -0.004524 eV
 added-field ion interaction          2.364634 eV  (added to PSCEN)


 Broyden mixing:
  rms(total) = 0.19435E+01    rms(broyden)= 0.19431E+01
  rms(prec ) = 0.20615E+01
  weight for this iteration     100.00

 eigenvalues of (default mixing * dielectric matrix)
  average eigenvalue GAMMA=   0.6746
  2.0055  0.7210  0.3503  0.1767  0.1194

 Free energy of the ion-electron system (eV)
  ---------------------------------------------------
  alpha Z        PSCENC =       776.96405840
  Ewald energy   TEWEN  =    385698.03555976
  -Hartree energ DENC   =   -439325.22524960
  -exchange      EXHF   =         0.00000000
  -V(xc)+E(xc)   XCENC  =     -1778.94689883
  PAW double counting   =     61710.31064659   -57879.75263334
  entropy T*S    EENTRO =        -0.10080439
  eigenvalues    EBANDS =     -2489.39059558
  atomic energy  EATOM  =     52990.04641755
  Solvation  Ediel_sol  =         0.00000000
  ---------------------------------------------------
  free energy    TOTEN  =      -298.05949943 eV

  energy without entropy =     -297.95869504  energy(sigma->0) =     -298.02589797


--------------------------------------------------------------------------------------------------------




--------------------------------------- Iteration      1(  11)  ---------------------------------------


    POTLOK:  cpu time    0.8434: real time    0.7292
    SETDIJ:  cpu time    0.0720: real time    0.0449
    EDDIAG:  cpu time   48.0581: real time   24.0886
  RMM-DIIS:  cpu time  173.8073: real time   87.1466
    ORTHCH:  cpu time    5.7368: real time    2.8756
       DOS:  cpu time    0.1731: real time    0.1281
    CHARGE:  cpu time    7.1845: real time    6.9020
    MIXING:  cpu time    0.0406: real time    0.0203
    --------------------------------------------
      LOOP:  cpu time  235.9158: real time  121.9353

 eigenvalue-minimisations  : 13854
 total energy-change (2. order) : 0.1282839E+01  (-0.6822063E+00)
 number of electron     659.9999510 magnetization      56.4914079
 augmentation part      272.7921169 magnetization      40.2617955

 DIPCOR: dipole corrections for dipol
 direction  3 min pos     1,
 dipolmoment           0.000000      0.000000     -0.330435 electrons x Angstroem
 Tr[quadrupol]    -13713.792242

 energy correction for charged system         0.000000 eV
 dipol+quadrupol energy correction           -0.002730 eV
 added-field ion interaction          1.837088 eV  (added to PSCEN)


 Broyden mixing:
  rms(total) = 0.17146E+01    rms(broyden)= 0.17143E+01
  rms(prec ) = 0.18323E+01
  weight for this iteration     100.00

 eigenvalues of (default mixing * dielectric matrix)
  average eigenvalue GAMMA=   0.6369
  2.0646  0.7531  0.3962  0.3067  0.1843  0.1168

 Free energy of the ion-electron system (eV)
  ---------------------------------------------------
  alpha Z        PSCENC =       776.43830531
  Ewald energy   TEWEN  =    385698.03555976
  -Hartree energ DENC   =   -439372.88082766
  -exchange      EXHF   =         0.00000000
  -V(xc)+E(xc)   XCENC  =     -1778.59235472
  PAW double counting   =     62044.56266261   -58215.19316639
  entropy T*S    EENTRO =        -0.05256184
  eigenvalues    EBANDS =     -2439.14069484
  atomic energy  EATOM  =     52990.04641755
  Solvation  Ediel_sol  =         0.00000000
  ---------------------------------------------------
  free energy    TOTEN  =      -296.77666022 eV

  energy without entropy =     -296.72409837  energy(sigma->0) =     -296.75913960


--------------------------------------------------------------------------------------------------------




--------------------------------------- Iteration      1(  12)  ---------------------------------------


    POTLOK:  cpu time    0.8300: real time    0.7845
    SETDIJ:  cpu time    0.0621: real time    0.0390
    EDDIAG:  cpu time   49.1950: real time   24.6632
  RMM-DIIS:  cpu time  173.6028: real time   87.0295
    ORTHCH:  cpu time    5.7710: real time    2.9171
       DOS:  cpu time    0.1399: real time    0.0949
    CHARGE:  cpu time    7.1393: real time    6.8550
    MIXING:  cpu time    0.0427: real time    0.0214
    --------------------------------------------
      LOOP:  cpu time  236.7828: real time  122.4046

 eigenvalue-minimisations  : 13853
 total energy-change (2. order) : 0.2732520E+00  (-0.2402945E+00)
 number of electron     659.9999512 magnetization      55.4992536
 augmentation part      271.7895270 magnetization      38.9883749

 DIPCOR: dipole corrections for dipol
 direction  3 min pos     1,
 dipolmoment           0.000000      0.000000     -0.335576 electrons x Angstroem
 Tr[quadrupol]    -13716.042347

 energy correction for charged system         0.000000 eV
 dipol+quadrupol energy correction           -0.002816 eV
 added-field ion interaction          1.865670 eV  (added to PSCEN)


 Broyden mixing:
  rms(total) = 0.13089E+01    rms(broyden)= 0.13087E+01
  rms(prec ) = 0.13998E+01
  weight for this iteration     100.00

 eigenvalues of (default mixing * dielectric matrix)
  average eigenvalue GAMMA=   0.6086
  2.0584  0.7253  0.4831  0.4831  0.2158  0.1759  0.1183

 Free energy of the ion-electron system (eV)
  ---------------------------------------------------
  alpha Z        PSCENC =       776.46680152
  Ewald energy   TEWEN  =    385698.03555976
  -Hartree energ DENC   =   -439480.13105363
  -exchange      EXHF   =         0.00000000
  -V(xc)+E(xc)   XCENC  =     -1778.43019004
  PAW double counting   =     62287.09400229   -58457.40232582
  entropy T*S    EENTRO =        -0.04381174
  eigenvalues    EBANDS =     -2332.13880814
  atomic energy  EATOM  =     52990.04641755
  Solvation  Ediel_sol  =         0.00000000
  ---------------------------------------------------
  free energy    TOTEN  =      -296.50340826 eV

  energy without entropy =     -296.45959651  energy(sigma->0) =     -296.48880434


--------------------------------------------------------------------------------------------------------




--------------------------------------- Iteration      1(  13)  ---------------------------------------


    POTLOK:  cpu time    0.8259: real time    0.7673
    SETDIJ:  cpu time    0.0724: real time    0.0450
    EDDIAG:  cpu time   50.3024: real time   25.3173
  RMM-DIIS:  cpu time  172.9442: real time   86.7153
    ORTHCH:  cpu time    5.6826: real time    2.8732
       DOS:  cpu time    0.0917: real time    0.0459
    CHARGE:  cpu time    7.3821: real time    7.0992
    MIXING:  cpu time    0.0438: real time    0.0220
    --------------------------------------------
      LOOP:  cpu time  237.3453: real time  122.8853

 eigenvalue-minimisations  : 13870
 total energy-change (2. order) :-0.1999144E+01  (-0.1260119E+00)
 number of electron     659.9999511 magnetization      53.9032315
 augmentation part      271.5378754 magnetization      37.4971880

 DIPCOR: dipole corrections for dipol
 direction  3 min pos     1,
 dipolmoment           0.000000      0.000000     -0.278071 electrons x Angstroem
 Tr[quadrupol]    -13716.852755

 energy correction for charged system         0.000000 eV
 dipol+quadrupol energy correction           -0.001934 eV
 added-field ion interaction          1.545962 eV  (added to PSCEN)


 Broyden mixing:
  rms(total) = 0.12324E+01    rms(broyden)= 0.12323E+01
  rms(prec ) = 0.13646E+01
  weight for this iteration     100.00

 eigenvalues of (default mixing * dielectric matrix)
  average eigenvalue GAMMA=   0.6177
  1.9773  0.8352  0.8352  0.5479  0.2666  0.1174  0.1809  0.1809

 Free energy of the ion-electron system (eV)
  ---------------------------------------------------
  alpha Z        PSCENC =       776.14797646
  Ewald energy   TEWEN  =    385698.03555976
  -Hartree energ DENC   =   -439519.55477819
  -exchange      EXHF   =         0.00000000
  -V(xc)+E(xc)   XCENC  =     -1779.59137917
  PAW double counting   =     62331.46798234   -58500.69039631
  entropy T*S    EENTRO =        -0.02819445
  eigenvalues    EBANDS =     -2294.33574037
  atomic energy  EATOM  =     52990.04641755
  Solvation  Ediel_sol  =         0.00000000
  ---------------------------------------------------
  free energy    TOTEN  =      -298.50255237 eV

  energy without entropy =     -298.47435792  energy(sigma->0) =     -298.49315422


--------------------------------------------------------------------------------------------------------




--------------------------------------- Iteration      1(  14)  ---------------------------------------


    POTLOK:  cpu time    0.8368: real time    0.7539
    SETDIJ:  cpu time    0.0739: real time    0.0452
    EDDIAG:  cpu time   48.8297: real time   24.4744
  RMM-DIIS:  cpu time  172.5461: real time   86.4804
    ORTHCH:  cpu time    5.8250: real time    2.9194
       DOS:  cpu time    0.0920: real time    0.0461
[...]
   -.122E+03 0.127E+03 -.244E+04   0.124E+03 -.128E+03 0.244E+04   -.114E+01 0.910E+00 0.353E+01   -.104E-01 -.126E-01 0.428E-02
   -.203E+03 -.651E+02 -.236E+04   0.202E+03 0.649E+02 0.236E+04   0.588E+00 0.160E+00 0.947E+00   -.212E-01 0.409E-01 -.631E-02
   -.775E+02 -.763E+02 -.245E+04   0.774E+02 0.764E+02 0.245E+04   0.946E-01 -.734E-01 0.247E+01   -.123E-01 0.198E-02 -.189E-01
   -.332E+02 0.636E+01 -.253E+04   0.332E+02 -.644E+01 0.253E+04   -.253E-02 0.112E+00 0.315E+01   -.230E-02 -.426E-01 -.890E-02
   -.433E+02 0.278E+02 -.255E+04   0.433E+02 -.277E+02 0.254E+04   -.282E-01 -.270E-01 0.319E+01   -.159E-01 -.161E-01 0.188E-01
   -.602E+02 -.794E+01 -.253E+04   0.600E+02 0.791E+01 0.253E+04   0.216E+00 -.257E-01 0.318E+01   0.482E-02 0.545E-01 0.176E-01
   -.367E+02 -.227E+02 -.255E+04   0.366E+02 0.227E+02 0.255E+04   0.532E-01 -.132E-01 0.317E+01   0.724E-02 0.788E-02 -.142E-01
   -.230E+02 0.258E+01 -.256E+04   0.230E+02 -.257E+01 0.255E+04   -.440E-01 0.507E-01 0.318E+01   -.455E-03 -.525E-01 0.529E-02
 -----------------------------------------------------------------------------------------------
   -.215E+02 -.174E+02 0.543E+02   -.281E-12 -.493E-13 0.909E-12   0.215E+02 0.174E+02 -.547E+02   -.385E-01 -.473E-01 0.383E+00
 
 
 POSITION                                       TOTAL-FORCE (eV/Angst)
 -----------------------------------------------------------------------------------
      3.41419      4.88662     19.72211         0.000732     -0.018818      0.018993
      4.75575      4.85459     20.64995         0.015902     -0.005053     -0.041076
      4.00377      3.43076     20.28613        -0.009968     -0.018345     -0.022792
      4.11723      2.19108     19.33574        -0.003615     -0.007363     -0.004612
      4.11879      0.91872     19.57156         0.004385      0.005814     -0.008812
      3.85950      4.43943     20.62780        -0.001036      0.002879     -0.000598
      1.37242      1.37243     12.08387         0.000556      0.011400      0.020124
      1.37229      4.11875     12.08334         0.007566      0.004736      0.022359
      1.37251      6.86464     12.08444        -0.004668      0.017187      0.011109
      1.37263      9.60929     12.08493         0.007025      0.000292      0.004410
      4.11821      1.37240     12.08375        -0.003166     -0.004207     -0.000396
      4.11823      4.11892     12.08325         0.000043      0.013188      0.028576
      4.11824      6.86475     12.08475        -0.003235     -0.013683      0.028949
      4.11822      9.60924     12.08517        -0.005140     -0.005481      0.022487
      6.86394      1.37242     12.08390         0.007553      0.011814      0.013234
      6.86397      4.11884     12.08357        -0.001275      0.007351      0.020502
      6.86370      6.86460     12.08478         0.010655      0.017642      0.013590
      6.86366      9.60918     12.08510         0.004495      0.003265      0.000612
      9.60913      1.37248     12.08411        -0.001241      0.013373      0.014777
      9.60904      4.11868     12.08378         0.003031      0.026782     -0.001281
      9.60900      6.86449     12.08458         0.000550      0.032464     -0.055891
      9.60907      9.60925     12.08489        -0.008476     -0.023420     -0.008670
      0.00208      0.00226     14.03524         0.000611     -0.001163     -0.001731
      0.00395      2.75441     14.03784        -0.001250     -0.000072     -0.004408
      0.00162      5.49680     14.03673         0.001826      0.001004      0.001618
      0.00111      8.24653     14.03960         0.001302     -0.000071     -0.004106
      2.74716      0.00042     14.04099        -0.001465     -0.001009      0.002651
      2.74985      2.74756     14.04310        -0.002383     -0.003225     -0.007545
      2.74413      5.48981     14.04122         0.000904     -0.001911      0.003148
      2.74348      8.23834     14.04346         0.002047     -0.002028     -0.007178
      5.49030      0.00161     14.03931         0.000448     -0.001398      0.006766
      5.48862      2.74716     14.04058        -0.000202     -0.001512      0.001239
      5.49371      5.49030     14.03986         0.000887     -0.000677      0.006128
      5.49234      8.24046     14.03949         0.001209      0.000533     -0.001553
      8.23447      0.00306     14.03604        -0.000830     -0.001380     -0.000509
      8.23367      2.75537     14.03889         0.001756     -0.003341     -0.003380
      8.23884      5.49727     14.03697         0.001613     -0.002053     -0.001588
      8.23471      8.24659     14.04433        -0.000679     -0.001735     -0.006385
      1.36782      1.37820     15.97942        -0.000350     -0.000809     -0.002422
      1.38911      4.11167     16.00868        -0.000069     -0.005485     -0.002549
      1.36958      6.86826     15.98601        -0.000607      0.004750     -0.003804
      1.39192      9.62694     16.01085        -0.000461     -0.003274      0.001100
      4.12110      1.36638     15.98818        -0.000331     -0.004842     -0.002643
      4.12164      4.11678     15.99758        -0.001966     -0.006765     -0.002364
      4.11926      6.86283     15.98501        -0.000868     -0.001251     -0.002173
      4.12009      9.60926     16.00201        -0.004072     -0.005589      0.000538
      6.86882      1.38027     15.98191         0.002365      0.000717      0.000711
      6.85319      4.11067     16.00661        -0.001089     -0.005544     -0.001035
      6.87010      6.87037     15.98218         0.002728      0.001266     -0.000008
      6.84637      9.63056     16.01102        -0.002949      0.001316      0.000047
      9.60953      1.38326     15.97600         0.001415     -0.002063     -0.001142
      9.61346      4.12947     15.98892        -0.001773      0.001063     -0.005013
      9.61318      6.86759     15.98716        -0.000170      0.003387     -0.002635
      9.61072      9.61449     15.98293        -0.000562      0.000211     -0.005337
     10.96631      0.01380     17.93940         0.000109     -0.004889      0.003845
     10.97643      2.74800     17.94713        -0.001006     -0.002451     -0.006768
      0.01082      5.50197     17.95202        -0.001201     -0.000672     -0.005812
     10.97946      8.24452     17.94377        -0.000460     -0.001833     -0.006319
      2.70653     10.95892     18.00156        -0.002231     -0.000388      0.001168
      2.71148      2.73869     18.00758         0.001719     -0.001704     -0.004565
      2.76031      5.48937     17.97198        -0.004923     -0.001086     -0.005034
      2.74766      8.21023     17.94967         0.000221     -0.001810      0.000932
      5.53390     10.96630     18.00424        -0.003379     -0.002667      0.001282
      5.52658      2.75058     18.02429        -0.000379     -0.001508     -0.000599
      5.50204      5.50634     17.93699        -0.003629     -0.001596     -0.003446
      5.49236      8.22352     17.95015        -0.001130     -0.001411     -0.003995
      8.25650      0.01383     17.94243        -0.002815     -0.002819     -0.001746
      8.24279      2.74931     17.94355         0.001864     -0.000453      0.006682
      8.24552      5.50234     17.94978        -0.002077     -0.003594     -0.006567
      8.24048      8.24288     17.93950         0.001609      0.000014      0.000906
 -----------------------------------------------------------------------------------
    total drift:                                0.004928      0.023712      0.036590


--------------------------------------------------------------------------------------------------------



  FREE ENERGIE OF THE ION-ELECTRON SYSTEM (eV)
  ---------------------------------------------------
  free  energy   TOTEN  =      -368.74302775 eV

  energy  without entropy=     -368.61056468  energy(sigma->0) =     -368.69887339
 
 d Force = 0.1280193E-03[ 0.109E-03, 0.147E-03]  d Energy = 0.1396216E-03-0.116E-04
 d Force =-0.3707330E+01[-0.371E+01,-0.371E+01]  d Ewald  =-0.3707330E+01 0.844E-08


--------------------------------------------------------------------------------------------------------


    POTLOK:  cpu time    0.7994: real time    0.8475


--------------------------------------------------------------------------------------------------------


 NEB: the previous image is higher in energy: F
 NEB: the next image is higher in energy    : F
 NEB: image is at an extrema
 NEB: diff energy (min, max):     0.459672    0.522291

 NEB: Tangent
 ----------------------------------------------
      0.26517     -0.67961      0.42457
     -0.01415      0.02132      0.04061
     -0.04001     -0.45542     -0.06873
      0.00099      0.01690     -0.00323
     -0.00135     -0.02064     -0.02238
     -0.09145     -0.07977      0.21000
      0.00001      0.00003      0.00025
     -0.00002     -0.00005      0.00018
     -0.00004     -0.00000      0.00008
     -0.00001      0.00007      0.00016
      0.00001      0.00003      0.00028
      0.00002     -0.00006      0.00018
      0.00002      0.00000      0.00001
      0.00001      0.00009      0.00014
     -0.00003      0.00004      0.00028
     -0.00001     -0.00004      0.00024
      0.00003     -0.00001      0.00014
      0.00000      0.00006      0.00018
     -0.00002      0.00003      0.00025
     -0.00004     -0.00002      0.00023
     -0.00003     -0.00001      0.00017
     -0.00002      0.00005      0.00018
     -0.00044      0.00327      0.00241
      0.00052      0.00409      0.00218
     -0.00149      0.00329     -0.00057
     -0.00248      0.00497     -0.00149
      0.00021      0.00815     -0.00222
     -0.00038      0.00500     -0.00256
     -0.00121      0.00618     -0.00220
     -0.00124      0.00898     -0.00213
      0.00007      0.00410      0.00158
      0.00081      0.00337      0.00072
      0.00138      0.00522     -0.00101
      0.00132      0.00655     -0.00121
     -0.00030      0.00161     -0.00010
      0.00083      0.00205     -0.00098
      0.00061      0.00282     -0.00025
      0.00004      0.00381     -0.00046
     -0.00168      0.00914     -0.00045
     -0.00032      0.00888     -0.00025
     -0.00435      0.01259     -0.00825
     -0.00079      0.01547      0.00003
     -0.00036      0.01151     -0.00149
     -0.00052      0.01272     -0.00647
     -0.00034      0.01650     -0.00959
      0.00049      0.01615     -0.00025
      0.00229      0.00404     -0.00001
      0.00315      0.00501     -0.00246
      0.00214      0.01096     -0.00259
     -0.00278      0.00869      0.00609
     -0.00068      0.00469      0.00182
      0.00009      0.00426      0.00126
     -0.00058      0.00427      0.00061
     -0.00226      0.00509      0.00145
     -0.00087      0.00698      0.00125
     -0.00042      0.00876      0.00181
      0.00532      0.01026     -0.00111
      0.00035      0.00553     -0.00032
     -0.00269      0.02978      0.00783
     -0.00399      0.03918     -0.01217
      0.00728      0.03569     -0.02200
     -0.00486      0.02329     -0.02935
     -0.00095      0.02031      0.00985
      0.00676      0.02995     -0.01467
     -0.00735      0.01606     -0.02197
     -0.00714      0.00979      0.00204
     -0.00147      0.00583      0.00318
      0.00223      0.00581      0.00175
     -0.00155      0.00758      0.00038
     -0.00130      0.00455      0.00095

 NEB: forces: par spring, perp REAL, dneb     5.767355    0.065336    0.000000
 NEB: distance to prev, next image, angle between     2.235495    1.082024   93.050540
 NEB: projections on to tangent (spring, REAL)    -5.767355    0.028614

 stress matrix after NEB project (eV)
    -37.94315      0.01198     -0.03044
      0.01198    -38.31005     -0.73042
     -0.03044     -0.73042     -6.45256
  FORCES: max atom, RMS     0.046928    0.008525
  FORCE total and by dimension    0.071327    0.043400
  Stress total and by dimension   54.314338   38.310051
 Quasi-Newton relaxation of ions (Broydens 2nd method)
  g(Force)  = 0.681E-03   g(Stress)= 0.000E+00

 retain information from N=  1 steps
 eigenvalues of (default step * inverse Hessian matrix)
  average eigenvalue of G=   0.9272
 eigenvalue spectrum of G is  0.9272


--------------------------------------------------------------------------------------------------------


  
 reached required accuracy - stopping structural energy minimisation
     LOOP+:  cpu time  945.8081: real time  617.2980
    4ORBIT:  cpu time    0.0000: real time    0.0000
 


 total charge     
 
# of ion       s       p       d       tot
------------------------------------------
    1        0.486   0.075   0.000   0.560
    2        0.590   0.107   0.000   0.697
    3        0.497   0.090   0.000   0.587
    4        1.283   2.356   0.000   3.639
    5        1.619   3.384   0.000   5.003
    6        1.594   3.632   0.000   5.226
    7        0.445   0.307   8.522   9.274
    8        0.445   0.307   8.521   9.273
    9        0.445   0.307   8.520   9.272
   10        0.445   0.308   8.521   9.275
   11        0.445   0.307   8.522   9.274
   12        0.445   0.307   8.522   9.273
   13        0.444   0.306   8.522   9.273
   14        0.446   0.307   8.522   9.274
   15        0.445   0.307   8.522   9.274
   16        0.445   0.308   8.521   9.273
   17        0.445   0.307   8.520   9.272
   18        0.445   0.308   8.521   9.274
   19        0.443   0.306   8.524   9.274
   20        0.447   0.307   8.521   9.274
   21        0.444   0.307   8.525   9.275
   22        0.444   0.309   8.520   9.273
   23        0.486   0.478   8.463   9.426
   24        0.485   0.478   8.460   9.423
   25        0.485   0.477   8.462   9.424
   26        0.485   0.477   8.462   9.424
   27        0.486   0.479   8.458   9.423
   28        0.486   0.479   8.457   9.422
   29        0.485   0.477   8.459   9.421
   30        0.485   0.477   8.458   9.420
   31        0.486   0.480   8.458   9.424
   32        0.487   0.480   8.457   9.424
   33        0.485   0.477   8.459   9.421
   34        0.484   0.477   8.459   9.421
   35        0.485   0.478   8.462   9.425
   36        0.486   0.478   8.459   9.423
   37        0.485   0.477   8.462   9.424
   38        0.486   0.477   8.461   9.424
   39        0.486   0.473   8.471   9.430
   40        0.487   0.473   8.469   9.430
   41        0.485   0.473   8.466   9.425
   42        0.488   0.479   8.453   9.420
   43        0.472   0.450   8.481   9.404
   44        0.481   0.467   8.473   9.421
   45        0.486   0.476   8.466   9.427
   46        0.484   0.469   8.464   9.418
   47        0.486   0.473   8.470   9.429
   48        0.488   0.475   8.467   9.430
   49        0.486   0.477   8.460   9.423
   50        0.488   0.479   8.453   9.420
   51        0.487   0.481   8.463   9.430
   52        0.485   0.475   8.458   9.418
   53        0.489   0.479   8.457   9.425
   54        0.486   0.478   8.457   9.421
   55        0.452   0.316   8.522   9.289
   56        0.449   0.313   8.527   9.290
   57        0.444   0.306   8.521   9.271
   58        0.445   0.308   8.522   9.274
   59        0.417   0.332   8.521   9.270
   60        0.477   0.443   8.514   9.435
   61        0.484   0.347   8.545   9.376
   62        0.448   0.311   8.524   9.282
   63        0.418   0.332   8.519   9.269
   64        0.475   0.438   8.513   9.427
   65        0.461   0.327   8.531   9.319
   66        0.449   0.311   8.523   9.283
   67        0.451   0.315   8.522   9.288
   68        0.451   0.315   8.527   9.293
   69        0.445   0.307   8.522   9.273
   70        0.445   0.309   8.521   9.276
--------------------------------------------------
tot         35.927  35.110 543.507 614.545
 


 magnetization (x)
 
# of ion       s       p       d       tot
------------------------------------------
    1       -0.000  -0.000   0.000  -0.000
    2       -0.000  -0.000   0.000  -0.000
    3       -0.000  -0.000   0.000  -0.000
    4       -0.000  -0.015   0.000  -0.015
    5        0.000  -0.008   0.000  -0.007
    6       -0.000  -0.001   0.000  -0.001
    7       -0.001  -0.003   0.209   0.205
    8       -0.001  -0.003   0.213   0.209
    9       -0.001  -0.003   0.216   0.212
   10       -0.001  -0.003   0.218   0.214
   11        0.000  -0.003   0.212   0.209
   12       -0.001  -0.003   0.216   0.212
   13       -0.001  -0.004   0.201   0.196
   14       -0.001  -0.003   0.213   0.209
   15       -0.001  -0.003   0.212   0.208
   16       -0.001  -0.003   0.213   0.209
   17       -0.001  -0.003   0.215   0.211
   18       -0.001  -0.004   0.221   0.216
   19       -0.001  -0.004   0.206   0.201
   20       -0.001  -0.003   0.218   0.214
   21        0.002  -0.003   0.224   0.223
   22       -0.001  -0.003   0.226   0.222
   23       -0.002  -0.006   0.304   0.296
   24       -0.002  -0.006   0.304   0.297
   25       -0.002  -0.006   0.295   0.288
   26       -0.002  -0.006   0.304   0.297
   27       -0.002  -0.006   0.306   0.298
   28       -0.002  -0.006   0.301   0.294
   29       -0.002  -0.006   0.304   0.296
   30       -0.002  -0.006   0.305   0.297
   31       -0.002  -0.006   0.307   0.300
   32       -0.002  -0.006   0.302   0.294
   33       -0.002  -0.006   0.298   0.291
   34       -0.002  -0.006   0.307   0.300
   35       -0.002  -0.006   0.309   0.301
   36       -0.002  -0.006   0.305   0.298
   37       -0.002  -0.006   0.295   0.288
   38       -0.002  -0.006   0.302   0.294
   39       -0.002  -0.006   0.285   0.278
   40       -0.002  -0.006   0.242   0.235
   41       -0.002  -0.006   0.293   0.286
   42       -0.002  -0.006   0.268   0.260
   43       -0.001  -0.005   0.279   0.273
   44       -0.001  -0.005   0.260   0.254
   45       -0.002  -0.006   0.280   0.272
   46       -0.001  -0.005   0.293   0.286
   47       -0.002  -0.006   0.290   0.282
   48       -0.002  -0.006   0.244   0.236
   49       -0.002  -0.006   0.298   0.290
   50       -0.002  -0.006   0.271   0.263
   51       -0.002  -0.006   0.293   0.285
   52       -0.002  -0.006   0.291   0.284
   53       -0.001  -0.006   0.317   0.310
   54       -0.002  -0.006   0.303   0.296
   55       -0.001  -0.003   0.200   0.196
   56       -0.001  -0.004   0.180   0.176
   57       -0.001  -0.003   0.191   0.188
   58       -0.001  -0.003   0.201   0.197
   59       -0.002  -0.003   0.137   0.132
   60       -0.003  -0.005   0.053   0.045
   61       -0.001  -0.004   0.125   0.119
   62       -0.001  -0.003   0.188   0.184
   63       -0.002  -0.003   0.138   0.133
   64       -0.003  -0.005   0.053   0.045
   65       -0.001  -0.003   0.167   0.163
   66       -0.000  -0.003   0.193   0.190
   67       -0.001  -0.003   0.200   0.197
   68       -0.001  -0.004   0.180   0.175
   69       -0.001  -0.003   0.195   0.191
   70       -0.001  -0.003   0.201   0.197
--------------------------------------------------
tot         -0.082  -0.317  15.390  14.992
 

 total amount of memory used by VASP MPI-rank0   484200. kBytes
=======================================================================

   base      :      30000. kBytes
   nonlr-proj:      12320. kBytes
   fftplans  :      18152. kBytes
   grid      :      52586. kBytes
   one-center:        217. kBytes
   wavefun   :     370925. kBytes
 
  
  
 General timing and accounting informations for this job:
 ========================================================
  
                  Total CPU time used (sec):    13916.663
                            User time (sec):    13343.342
                          System time (sec):      573.322
                         Elapsed time (sec):     7628.817
  
                   Maximum memory used (kb):     1095588.
                   Average memory used (kb):           0.
  
                          Minor page faults:      1842058
                          Major page faults:           11
                 Voluntary context switches:        64010
