 vasp.5.4.4.18Apr17-6-g9f103f2a35 (build May 01 2020 14:57:12) complex          
  
 executed on             LinuxIFC date 2021.10.17  13:35:06
 running on  192 total cores
 distrk:  each k-point on  192 cores,    1 groups
 distr:  one band on NCORES_PER_BAND=   1 cores,  192 groups


--------------------------------------------------------------------------------------------------------


 INCAR:
 POTCAR:    PAW_PBE Pd 04Jan2005                  
 POTCAR:    PAW_PBE N 08Apr2002                   
 POTCAR:    PAW_PBE O 08Apr2002                   
 POTCAR:    PAW_PBE H 15Jun2001                   

 ----------------------------------------------------------------------------- 
|                                                                             |
|           W    W    AA    RRRRR   N    N  II  N    N   GGGG   !!!           |
|           W    W   A  A   R    R  NN   N  II  NN   N  G    G  !!!           |
|           W    W  A    A  R    R  N N  N  II  N N  N  G       !!!           |
|           W WW W  AAAAAA  RRRRR   N  N N  II  N  N N  G  GGG   !            |
|           WW  WW  A    A  R   R   N   NN  II  N   NN  G    G                |
|           W    W  A    A  R    R  N    N  II  N    N   GGGG   !!!           |
|                                                                             |
|      For optimal performance we recommend to set                            |
|        NCORE= 4 - approx SQRT( number of cores)                             |
|      NCORE specifies how many cores store one orbital (NPAR=cpu/NCORE).     |
|      This setting can  greatly improve the performance of VASP for DFT.     |
|      The default,   NCORE=1            might be grossly inefficient         |
|      on modern multi-core architectures or massively parallel machines.     |
|      Do your own testing !!!!                                               |
|      Unfortunately you need to use the default for GW and RPA calculations. |
|      (for HF NCORE is supported but not extensively tested yet)             |
|                                                                             |
 ----------------------------------------------------------------------------- 

 POTCAR:    PAW_PBE Pd 04Jan2005                  
   VRHFIN =Pd : s1 d9                                                           
   LEXCH  = PE                                                                  
   EATOM  =   809.7530 eV,   59.5152 Ry                                         
                                                                                
   TITEL  = PAW_PBE Pd 04Jan2005                                                
   LULTRA =        F    use ultrasoft PP ?                                      
   IUNSCR =        1    unscreen: 0-lin 1-nonlin 2-no                           
   RPACOR =    2.000    partial core radius                                     
   POMASS =  106.420; ZVAL   =   10.000    mass and valenz                      
   RCORE  =    2.600    outmost cutoff radius                                   
   RWIGS  =    2.710; RWIGS  =    1.434    wigner-seitz radius (au A)           
   ENMAX  =  250.925; ENMIN  =  188.194 eV                                      
   ICORE  =        3    local potential                                         
   LCOR   =        T    correct aug charges                                     
   LPAW   =        T    paw PP                                                  
   EAUG   =  416.230                                                            
   DEXC   =    0.000                                                            
   RMAX   =    2.653    core radius for proj-oper                               
   RAUG   =    1.300    factor for augmentation sphere                          
   RDEP   =    2.734    radius for radial grids                                 
   RDEPT  =    2.103    core radius for aug-charge                              
                                                                                
   Atomic configuration                                                         
   12 entries                                                                   
     n  l   j            E        occ.                                          
     1  0  0.50    -24164.6631   2.0000                                         
     2  0  0.50     -3530.9218   2.0000                                         
     2  1  1.50     -3165.6822   6.0000                                         
     3  0  0.50      -639.4577   2.0000                                         
     3  1  1.50      -519.4532   6.0000                                         
     3  2  2.50      -328.9757  10.0000                                         
     4  0  0.50       -88.7014   2.0000                                         
     4  1  1.50       -54.4540   6.0000                                         
     4  2  2.50        -6.6878   9.0000                                         
     5  0  0.50        -4.3543   1.0000                                         
     5  1  0.50        -1.3606   0.0000                                         
     4  3  2.50        -1.3606   0.0000                                         
   Description                                                                  
     l       E           TYP  RCUT    TYP  RCUT                                 
     2     -6.6878251     23  2.400                                             
     2     -8.0484077     23  2.400                                             
     0     -4.3542939     23  2.400                                             
     0      4.3406793     23  2.400                                             
     1     -4.0817478     23  2.600                                             
     1     15.8380318     23  2.600                                             
     3     -4.0817478     23  2.400                                             
  local pseudopotential read in
  partial core-charges read in
  partial kinetic energy density read in
  atomic valenz-charges read in
  non local Contribution for L=           2  read in
    real space projection operators read in
  non local Contribution for L=           2  read in
    real space projection operators read in
  non local Contribution for L=           0  read in
    real space projection operators read in
  non local Contribution for L=           0  read in
    real space projection operators read in
  non local Contribution for L=           1  read in
    real space projection operators read in
  non local Contribution for L=           1  read in
    real space projection operators read in
    PAW grid and wavefunctions read in
 
   number of l-projection  operators is LMAX  =           6
   number of lm-projection operators is LMMAX =          18
 
 POTCAR:    PAW_PBE N 08Apr2002                   
   VRHFIN =N: s2p3                                                              
   LEXCH  = PE                                                                  
   EATOM  =   264.5486 eV,   19.4438 Ry                                         
                                                                                
   TITEL  = PAW_PBE N 08Apr2002                                                 
   LULTRA =        F    use ultrasoft PP ?                                      
   IUNSCR =        1    unscreen: 0-lin 1-nonlin 2-no                           
   RPACOR =    1.200    partial core radius                                     
   POMASS =   14.001; ZVAL   =    5.000    mass and valenz                      
   RCORE  =    1.500    outmost cutoff radius                                   
   RWIGS  =    1.400; RWIGS  =    0.741    wigner-seitz radius (au A)           
   ENMAX  =  400.000; ENMIN  =  300.000 eV                                      
   ICORE  =        2    local potential                                         
   LCOR   =        T    correct aug charges                                     
   LPAW   =        T    paw PP                                                  
   EAUG   =  627.112                                                            
   DEXC   =    0.000                                                            
   RMAX   =    1.529    core radius for proj-oper                               
   RAUG   =    1.300    factor for augmentation sphere                          
   RDEP   =    1.514    radius for radial grids                                 
   RDEPT  =    1.338    core radius for aug-charge                              
                                                                                
   Atomic configuration                                                         
    4 entries                                                                   
     n  l   j            E        occ.                                          
     1  0  0.50      -384.7179   2.0000                                         
     2  0  0.50       -18.5828   2.0000                                         
     2  1  0.50        -7.0898   3.0000                                         
     3  2  1.50        -6.8029   0.0000                                         
   Description                                                                  
     l       E           TYP  RCUT    TYP  RCUT                                 
     0    -18.5828119     23  1.200                                             
     0    -13.5018863     23  1.200                                             
     1     -7.0897853     23  1.500                                             
     1      9.5240782     23  1.500                                             
     2     -6.8029130      7  1.500                                             
  local pseudopotential read in
  partial core-charges read in
  partial kinetic energy density read in
  atomic valenz-charges read in
  non local Contribution for L=           0  read in
    real space projection operators read in
  non local Contribution for L=           0  read in
    real space projection operators read in
  non local Contribution for L=           1  read in
    real space projection operators read in
  non local Contribution for L=           1  read in
    real space projection operators read in
    PAW grid and wavefunctions read in
 
   number of l-projection  operators is LMAX  =           4
   number of lm-projection operators is LMMAX =           8
 
 POTCAR:    PAW_PBE O 08Apr2002                   
   VRHFIN =O: s2p4                                                              
   LEXCH  = PE                                                                  
   EATOM  =   432.3788 eV,   31.7789 Ry                                         
                                                                                
   TITEL  = PAW_PBE O 08Apr2002                                                 
   LULTRA =        F    use ultrasoft PP ?                                      
   IUNSCR =        1    unscreen: 0-lin 1-nonlin 2-no                           
   RPACOR =    1.200    partial core radius                                     
   POMASS =   16.000; ZVAL   =    6.000    mass and valenz                      
   RCORE  =    1.520    outmost cutoff radius                                   
   RWIGS  =    1.550; RWIGS  =    0.820    wigner-seitz radius (au A)           
   ENMAX  =  400.000; ENMIN  =  300.000 eV                                      
   ICORE  =        2    local potential                                         
   LCOR   =        T    correct aug charges                                     
   LPAW   =        T    paw PP                                                  
   EAUG   =  605.392                                                            
   DEXC   =    0.000                                                            
   RMAX   =    1.553    core radius for proj-oper                               
   RAUG   =    1.300    factor for augmentation sphere                          
   RDEP   =    1.550    radius for radial grids                                 
   RDEPT  =    1.329    core radius for aug-charge                              
                                                                                
   Atomic configuration                                                         
    4 entries                                                                   
     n  l   j            E        occ.                                          
     1  0  0.50      -514.6923   2.0000                                         
     2  0  0.50       -23.9615   2.0000                                         
     2  1  0.50        -9.0305   4.0000                                         
     3  2  1.50        -9.5241   0.0000                                         
   Description                                                                  
     l       E           TYP  RCUT    TYP  RCUT                                 
     0    -23.9615318     23  1.200                                             
     0     -9.5240782     23  1.200                                             
     1     -9.0304911     23  1.520                                             
     1      8.1634956     23  1.520                                             
     2     -9.5240782      7  1.500                                             
  local pseudopotential read in
  partial core-charges read in
  partial kinetic energy density read in
  kinetic energy density of atom read in
  atomic valenz-charges read in
  non local Contribution for L=           0  read in
    real space projection operators read in
  non local Contribution for L=           0  read in
    real space projection operators read in
  non local Contribution for L=           1  read in
    real space projection operators read in
  non local Contribution for L=           1  read in
    real space projection operators read in
    PAW grid and wavefunctions read in
 
   number of l-projection  operators is LMAX  =           4
   number of lm-projection operators is LMMAX =           8
 
 POTCAR:    PAW_PBE H 15Jun2001                   
   VRHFIN =H: ultrasoft test                                                    
   LEXCH  = PE                                                                  
   EATOM  =    12.4884 eV,    0.9179 Ry                                         
                                                                                
   TITEL  = PAW_PBE H 15Jun2001                                                 
   LULTRA =        F    use ultrasoft PP ?                                      
   IUNSCR =        0    unscreen: 0-lin 1-nonlin 2-no                           
   RPACOR =    0.000    partial core radius                                     
   POMASS =    1.000; ZVAL   =    1.000    mass and valenz                      
   RCORE  =    1.100    outmost cutoff radius                                   
   RWIGS  =    0.700; RWIGS  =    0.370    wigner-seitz radius (au A)           
   ENMAX  =  250.000; ENMIN  =  200.000 eV                                      
   RCLOC  =    0.701    cutoff for local pot                                    
   LCOR   =        T    correct aug charges                                     
   LPAW   =        T    paw PP                                                  
   EAUG   =  400.000                                                            
   RMAX   =    1.123    core radius for proj-oper                               
   RAUG   =    1.200    factor for augmentation sphere                          
   RDEP   =    1.112    radius for radial grids                                 
   RDEPT  =    0.926    core radius for aug-charge                              
                                                                                
   Atomic configuration                                                         
    2 entries                                                                   
     n  l   j            E        occ.                                          
     1  0  0.50        -6.4927   1.0000                                         
     2  1  0.50        -3.4015   0.0000                                         
   Description                                                                  
     l       E           TYP  RCUT    TYP  RCUT                                 
     0     -6.4927494     23  1.100                                             
     0      6.8029130     23  1.100                                             
     1     -4.0817478     23  1.100                                             
  local pseudopotential read in
  atomic valenz-charges read in
  non local Contribution for L=           0  read in
    real space projection operators read in
  non local Contribution for L=           0  read in
    real space projection operators read in
  non local Contribution for L=           1  read in
    real space projection operators read in
    PAW grid and wavefunctions read in
 
   number of l-projection  operators is LMAX  =           3
   number of lm-projection operators is LMMAX =           5
 
 Optimization of the real space projectors (new method)

 maximal supplied QI-value         = 14.36
 optimisation between [QCUT,QGAM] = [ 10.20, 20.39] = [ 29.12,116.47] Ry 
 Optimized for a Real-space Cutoff    1.55 Angstroem

   l    n(q)    QCUT    max X(q) W(low)/X(q) W(high)/X(q)  e(spline) 
   2      9    10.197    59.108    0.12E-03    0.40E-04    0.11E-06
   2      9    10.197    58.101    0.12E-03    0.39E-04    0.12E-06
   0      9    10.197   102.235    0.41E-04    0.86E-05    0.83E-07
   0      9    10.197    58.388    0.37E-04    0.79E-05    0.78E-07
   1      9    10.197    22.191    0.25E-03    0.13E-03    0.84E-07
   1      9    10.197    15.590    0.21E-03    0.11E-03    0.74E-07
 Optimization of the real space projectors (new method)

 maximal supplied QI-value         = 25.13
 optimisation between [QCUT,QGAM] = [ 10.05, 20.36] = [ 28.30,116.06] Ry 
 Optimized for a Real-space Cutoff    1.70 Angstroem

   l    n(q)    QCUT    max X(q) W(low)/X(q) W(high)/X(q)  e(spline) 
   0     10    10.053    79.467    0.61E-04    0.98E-04    0.61E-06
   0     10    10.053    66.151    0.60E-04    0.98E-04    0.61E-06
   1     10    10.053     8.350    0.17E-03    0.71E-03    0.45E-05
   1     10    10.053     5.531    0.18E-03    0.77E-03    0.49E-05
 Optimization of the real space projectors (new method)

 maximal supplied QI-value         = 24.76
 optimisation between [QCUT,QGAM] = [ 10.15, 20.30] = [ 28.85,115.39] Ry 
 Optimized for a Real-space Cutoff    1.51 Angstroem

   l    n(q)    QCUT    max X(q) W(low)/X(q) W(high)/X(q)  e(spline) 
   0      9    10.150    20.381    0.17E-03    0.18E-03    0.41E-06
   0      9    10.150    15.268    0.18E-03    0.20E-03    0.43E-06
   1      9    10.150     5.964    0.16E-03    0.20E-03    0.36E-06
   1      9    10.150     5.382    0.13E-03    0.16E-03    0.33E-06
 Optimization of the real space projectors (new method)

 maximal supplied QI-value         = 34.20
 optimisation between [QCUT,QGAM] = [  9.92, 20.18] = [ 27.55,114.04] Ry 
 Optimized for a Real-space Cutoff    1.34 Angstroem

   l    n(q)    QCUT    max X(q) W(low)/X(q) W(high)/X(q)  e(spline) 
   0      8     9.919    19.460    0.16E-03    0.20E-03    0.36E-06
   0      8     9.919    12.209    0.16E-03    0.20E-03    0.35E-06
   1      8     9.919     4.655    0.19E-03    0.46E-03    0.40E-06
  PAW_PBE Pd 04Jan2005                  :
 energy of atom  1       EATOM= -809.7530
 kinetic energy error for atom=    0.0091 (will be added to EATOM!!)
  PAW_PBE N 08Apr2002                   :
 energy of atom  2       EATOM= -264.5486
 kinetic energy error for atom=    0.0736 (will be added to EATOM!!)
  PAW_PBE O 08Apr2002                   :
 energy of atom  3       EATOM= -432.3788
 kinetic energy error for atom=    0.1156 (will be added to EATOM!!)
  PAW_PBE H 15Jun2001                   :
 energy of atom  4       EATOM=  -12.4884
 kinetic energy error for atom=    0.0098 (will be added to EATOM!!)
 
 
 POSCAR: Pd N O H                                
  positions in direct lattice
  velocities in cartesian coordinates
 exchange correlation table for  LEXCH =        8
   RHO(1)=    0.500       N(1)  =     2000
   RHO(2)=  100.500       N(2)  =     4000
 


--------------------------------------------------------------------------------------------------------


 ion  position               nearest neighbor table
   1  0.125  0.125  0.403-   2 2.75   5 2.75   4 2.75  13 2.75  18 2.75  21 2.75  17 2.75  22 2.76

   2  0.125  0.375  0.403-   1 2.75   3 2.75   6 2.75  14 2.75  18 2.75  19 2.76  23 2.76  22 2.76

   3  0.125  0.625  0.403-   2 2.75   4 2.75   7 2.75  15 2.75  19 2.75  24 2.75  20 2.75  23 2.76

   4  0.125  0.875  0.403-   3 2.75   8 2.75   1 2.75  16 2.75  21 2.75  20 2.75  24 2.76  17 2.76

   5  0.375  0.125  0.403-   1 2.75   6 2.75   9 2.75   8 2.75  26 2.75  22 2.75  21 2.76  25 2.76

   6  0.375  0.375  0.403-   2 2.75   5 2.75   7 2.75  10 2.75  27 2.75  23 2.75  26 2.75  22 2.76

   7  0.375  0.625  0.403-   3 2.75   6 2.75   8 2.75  11 2.75  24 2.75  27 2.75  28 2.76  23 2.76

   8  0.375  0.875  0.403-   4 2.75   7 2.75  12 2.75   5 2.75  21 2.76  25 2.76  28 2.76  24 2.76

   9  0.625  0.125  0.403-   5 2.75  10 2.75  13 2.75  12 2.75  30 2.75  25 2.75  26 2.75  29 2.76

  10  0.625  0.375  0.403-   6 2.75   9 2.75  11 2.75  14 2.75  30 2.75  27 2.75  26 2.75  31 2.76

  11  0.625  0.625  0.403-   7 2.75  10 2.75  12 2.75  15 2.75  31 2.75  28 2.75  32 2.76  27 2.76

  12  0.625  0.875  0.403-   8 2.75  11 2.75  16 2.75   9 2.75  25 2.75  28 2.75  32 2.76  29 2.76

  13  0.875  0.125  0.403-   9 2.75  14 2.75   1 2.75  16 2.75  30 2.75  18 2.75  29 2.76  17 2.76

  14  0.875  0.375  0.403-  10 2.75  13 2.75  15 2.75   2 2.75  18 2.75  30 2.75  19 2.76  31 2.76

  15  0.875  0.625  0.403-  11 2.75  14 2.75  16 2.75   3 2.75  20 2.75  19 2.75  31 2.75  32 2.75

  16  0.875  0.875  0.403-  12 2.75  15 2.75  13 2.75   4 2.75  20 2.75  32 2.75  29 2.76  17 2.76

  17  0.000  0.000  0.468-  18 2.74  21 2.74  45 2.74  36 2.75  48 2.75  29 2.75  20 2.75   1 2.75
                            13 2.76   4 2.76  16 2.76  33 2.78
  18  0.000  0.250  0.468-  17 2.74  34 2.74  22 2.74  46 2.75   1 2.75  45 2.75  30 2.75  13 2.75
                             2 2.75  14 2.75  19 2.75  33 2.77
  19  0.000  0.500  0.468-  20 2.74  34 2.74  23 2.74  46 2.75  47 2.75   3 2.75  31 2.75  15 2.75
                            18 2.75   2 2.76  14 2.76  35 2.76
  20  1.000  0.750  0.468-  19 2.74  24 2.74  32 2.74  48 2.75  36 2.75  17 2.75  47 2.75  15 2.75
                            16 2.75   3 2.75   4 2.75  35 2.79
  21  0.250  0.000  0.468-  17 2.74  22 2.74  40 2.75  36 2.75  24 2.75  25 2.75   1 2.75   4 2.75
                             5 2.76   8 2.76  37 2.76  33 2.77
  22  0.250  0.250  0.468-  38 2.74  21 2.74  26 2.74  18 2.74  23 2.74  34 2.75  33 2.75   5 2.75
                             1 2.76  37 2.76   6 2.76   2 2.76
  23  0.250  0.500  0.468-  27 2.74  24 2.74  19 2.74  22 2.74  38 2.75  34 2.75  39 2.75   6 2.75
                            35 2.75   7 2.76   2 2.76   3 2.76
  24  0.250  0.749  0.468-  23 2.74  20 2.74  40 2.74  36 2.75   3 2.75  21 2.75  39 2.75  28 2.75
                             7 2.75   4 2.76   8 2.76  35 2.76
  25  0.500  0.000  0.468-  29 2.74  26 2.74  40 2.75  44 2.75  28 2.75  21 2.75   9 2.75  12 2.75
                            37 2.75   5 2.76   8 2.76  41 2.77
  26  0.500  0.250  0.468-  25 2.74  22 2.74  38 2.74  30 2.74  27 2.74  42 2.75   5 2.75  41 2.75
                             9 2.75   6 2.75  10 2.75  37 2.76
  27  0.500  0.500  0.468-  23 2.74  28 2.74  31 2.74  26 2.74  38 2.75  42 2.75  39 2.75   6 2.75
                            43 2.75   7 2.75  10 2.75  11 2.76
  28  0.500  0.750  0.468-  32 2.74  27 2.74  40 2.74  44 2.75  11 2.75  25 2.75  24 2.75  39 2.75
                            12 2.75   7 2.76   8 2.76  43 2.76
  29  0.750  0.000  0.468-  30 2.74  25 2.74  45 2.74  44 2.75  48 2.75  32 2.75  17 2.75   9 2.76
                            13 2.76  12 2.76  16 2.76  41 2.78
  30  0.750  0.250  0.468-  29 2.74  42 2.74  26 2.74  46 2.75   9 2.75  18 2.75  45 2.75  13 2.75
                            10 2.75  14 2.75  31 2.76  41 2.77
  31  0.750  0.501  0.468-  32 2.74  42 2.74  27 2.74  46 2.75  47 2.75  11 2.75  19 2.75  15 2.75
                            10 2.76  30 2.76  14 2.76  43 2.76
  32  0.750  0.750  0.468-  31 2.74  28 2.74  20 2.74  48 2.75  44 2.75  29 2.75  47 2.75  16 2.75
                            15 2.75  12 2.76  11 2.76  43 2.79
  33  0.127  0.126  0.534-  54 2.72  37 2.73  34 2.73  53 2.75  22 2.75  50 2.75  49 2.76  36 2.76
                            45 2.76  21 2.77  18 2.77  17 2.78
  34  0.124  0.375  0.533-  35 2.73  33 2.73  46 2.74  19 2.74  18 2.74  22 2.75  23 2.75  38 2.76
                            51 2.76  50 2.77  54 2.79  55 2.80
  35  0.127  0.623  0.534-  34 2.73  39 2.73  55 2.73  56 2.74  51 2.75  23 2.75  52 2.76  47 2.76
                            36 2.76  19 2.76  24 2.76  20 2.79
  36  0.125  0.875  0.533-  48 2.74  17 2.75  20 2.75  24 2.75  40 2.75  21 2.75  53 2.75  56 2.75
                            49 2.76  52 2.76  33 2.76  35 2.76
  37  0.375  0.125  0.533-  41 2.73  33 2.73  38 2.74  40 2.75  57 2.75  25 2.75  53 2.76  22 2.76
                            21 2.76  26 2.76  58 2.80  54 2.80
  38  0.375  0.374  0.533-  22 2.74  37 2.74  26 2.74  23 2.75  27 2.75  39 2.75  42 2.75  34 2.76
                            58 2.84  54 2.84  55 2.84  59 2.84
  39  0.375  0.625  0.533-  43 2.73  35 2.73  40 2.74  38 2.75  27 2.75  23 2.75  24 2.75  28 2.75
                            56 2.75  60 2.76  59 2.81  55 2.81
  40  0.375  0.875  0.533-  28 2.74  24 2.74  39 2.74  37 2.75  25 2.75  21 2.75  44 2.75  36 2.75
                            53 2.75  57 2.76  56 2.76  60 2.76
  41  0.624  0.126  0.534-  58 2.72  37 2.73  42 2.73  57 2.75  62 2.75  26 2.75  61 2.76  45 2.76
                            44 2.76  25 2.77  30 2.77  29 2.78
  42  0.626  0.375  0.533-  43 2.73  41 2.73  46 2.74  31 2.74  30 2.74  27 2.75  26 2.75  38 2.75
                            63 2.76  62 2.77  58 2.79  59 2.80
  43  0.623  0.623  0.534-  39 2.73  42 2.73  59 2.74  60 2.75  63 2.75  27 2.75  64 2.76  44 2.76
                            31 2.76  47 2.76  28 2.76  32 2.79
  44  0.625  0.875  0.533-  48 2.74  29 2.75  32 2.75  40 2.75  28 2.75  25 2.75  57 2.75  64 2.76
                            60 2.76  61 2.76  41 2.76  43 2.76
  45  0.875  0.125  0.533-  29 2.74  17 2.74  48 2.75  46 2.75  50 2.75  18 2.75  30 2.75  62 2.75
                            61 2.76  49 2.76  33 2.76  41 2.76
  46  0.875  0.375  0.533-  34 2.74  42 2.74  47 2.74  31 2.75  19 2.75  30 2.75  45 2.75  18 2.75
                            62 2.75  50 2.75  51 2.76  63 2.76
  47  0.875  0.625  0.533-  46 2.74  48 2.74  19 2.75  31 2.75  32 2.75  20 2.75  64 2.75  52 2.76
                            51 2.76  63 2.76  35 2.76  43 2.76
  48  0.875  0.875  0.533-  36 2.74  47 2.74  44 2.74  45 2.75  32 2.75  20 2.75  17 2.75  29 2.75
                            64 2.75  61 2.75  49 2.76  52 2.76
  49  1.000  1.000  0.598-  61 2.74  52 2.74  50 2.75  53 2.75  48 2.76  36 2.76  33 2.76  45 2.76

  50  0.998  0.250  0.598-  62 2.70  54 2.71  51 2.74  45 2.75  49 2.75  33 2.75  46 2.75  34 2.77

  51  0.999  0.499  0.598-  55 2.71  63 2.72  50 2.74  35 2.75  52 2.76  47 2.76  46 2.76  34 2.76

  52  1.000  0.750  0.598-  64 2.73  49 2.74  56 2.75  48 2.76  51 2.76  47 2.76  36 2.76  35 2.76

  53  0.251  0.998  0.598-  56 2.72  57 2.74  54 2.74  33 2.75  36 2.75  40 2.75  49 2.75  37 2.76

  54  0.245  0.247  0.600-  66 2.18  50 2.71  33 2.72  53 2.74  34 2.79  55 2.79  37 2.80  38 2.84
                            58 2.86
  55  0.246  0.501  0.600-  65 2.04  51 2.71  35 2.73  56 2.74  54 2.79  34 2.80  39 2.81  59 2.84
                            38 2.84
  56  0.250  0.751  0.598-  53 2.72  55 2.74  60 2.74  35 2.74  52 2.75  36 2.75  39 2.75  40 2.76

  57  0.500  0.998  0.598-  60 2.72  58 2.74  53 2.74  41 2.75  44 2.75  61 2.75  37 2.75  40 2.76

  58  0.505  0.248  0.600-  66 2.18  62 2.71  41 2.72  57 2.74  42 2.79  59 2.79  37 2.80  38 2.84
                            54 2.86
  59  0.504  0.502  0.600-  65 2.04  63 2.71  43 2.74  60 2.74  58 2.79  42 2.80  39 2.81  55 2.84
                            38 2.84
  60  0.500  0.751  0.598-  57 2.72  59 2.74  56 2.74  43 2.75  64 2.75  44 2.76  40 2.76  39 2.76

  61  0.751  1.000  0.598-  49 2.74  64 2.74  62 2.75  57 2.75  48 2.75  45 2.76  44 2.76  41 2.76

  62  0.752  0.250  0.598-  50 2.70  58 2.71  63 2.73  41 2.75  45 2.75  61 2.75  46 2.75  42 2.77

  63  0.751  0.499  0.598-  59 2.71  51 2.72  62 2.73  43 2.75  64 2.76  47 2.76  46 2.76  42 2.76

  64  0.751  0.750  0.598-  52 2.73  61 2.74  48 2.75  47 2.75  60 2.75  63 2.76  44 2.76  43 2.76

  65  0.375  0.440  0.644-  67 1.03  66 1.37  55 2.04  59 2.04
  66  0.375  0.316  0.649-  65 1.37  54 2.18  58 2.18
  67  0.375  0.477  0.676-  65 1.03
 
  LATTYP: Found a simple tetragonal cell.
 ALAT       =    10.9820000000
 C/A-ratio  =     2.7317428519
  
  Lattice vectors:
  
 A1 = (  10.9820000000,   0.0000000000,   0.0000000000)
 A2 = (   0.0000000000,  10.9820000000,   0.0000000000)
 A3 = (   0.0000000000,   0.0000000000,  30.0000000000)


Analysis of symmetry for initial positions (statically):
=====================================================================
 Subroutine PRICEL returns:
 Original cell was already a primitive cell.
 

 Routine SETGRP: Setting up the symmetry group for a 
 simple tetragonal supercell.


 Subroutine GETGRP returns: Found  1 space group operations
 (whereof  1 operations were pure point group operations)
 out of a pool of 16 trial point group operations.


The static configuration has the point symmetry C_1 .


Analysis of symmetry for dynamics (positions and initial velocities):
=====================================================================
 Subroutine PRICEL returns:
 Original cell was already a primitive cell.
 

 Routine SETGRP: Setting up the symmetry group for a 
 simple tetragonal supercell.


 Subroutine GETGRP returns: Found  1 space group operations
 (whereof  1 operations were pure point group operations)
 out of a pool of 16 trial point group operations.


The dynamic configuration has the point symmetry C_1 .


Analysis of constrained symmetry for selective dynamics:
=====================================================================
 Subroutine PRICEL returns:
 Original cell was already a primitive cell.
 

 Routine SETGRP: Setting up the symmetry group for a 
 simple tetragonal supercell.


 Subroutine GETGRP returns: Found  1 space group operations
 (whereof  1 operations were pure point group operations)
 out of a pool of 16 trial point group operations.


The constrained configuration has the point symmetry C_1 .


Analysis of structural, dynamic, and magnetic symmetry:
=====================================================================
 Subroutine PRICEL returns:
 Original cell was already a primitive cell.
 

 Routine SETGRP: Setting up the symmetry group for a 
 simple tetragonal supercell.


 Subroutine GETGRP returns: Found  1 space group operations
 (whereof  1 operations were pure point group operations)
 out of a pool of 16 trial point group operations.


The magnetic configuration has the point symmetry C_1 .


 Subroutine INISYM returns: Found  1 space group operations
 (whereof  1 operations are pure point group operations),
 and found     1 'primitive' translations

 
 
 KPOINTS: K-Point Grid                            

Automatic generation of k-mesh.
Space group operators:
 irot       det(A)        alpha          n_x          n_y          n_z        tau_x        tau_y        tau_z
    1     1.000000     0.000001     1.000000     0.000000     0.000000     0.000000     0.000000     0.000000
 
 Subroutine IBZKPT returns following result:
 ===========================================
 
 Found      8 irreducible k-points:
 
 Following reciprocal coordinates:
            Coordinates               Weight
  0.125000  0.125000  0.000000      2.000000
  0.375000  0.125000  0.000000      2.000000
 -0.375000  0.125000  0.000000      2.000000
 -0.125000  0.125000  0.000000      2.000000
  0.125000  0.375000  0.000000      2.000000
  0.375000  0.375000  0.000000      2.000000
 -0.375000  0.375000  0.000000      2.000000
 -0.125000  0.375000  0.000000      2.000000
 
 Following cartesian coordinates:
            Coordinates               Weight
  0.011382  0.011382  0.000000      2.000000
  0.034147  0.011382  0.000000      2.000000
 -0.034147  0.011382  0.000000      2.000000
 -0.011382  0.011382  0.000000      2.000000
  0.011382  0.034147  0.000000      2.000000
  0.034147  0.034147  0.000000      2.000000
 -0.034147  0.034147  0.000000      2.000000
 -0.011382  0.034147  0.000000      2.000000
 


--------------------------------------------------------------------------------------------------------




 Dimension of arrays:
   k-points           NKPTS =      8   k-points in BZ     NKDIM =      8   number of bands    NBANDS=    576
   number of dos      NEDOS =   1200   number of ions     NIONS =     67
   non local maximal  LDIM  =      6   non local SUM 2l+1 LMDIM =     18
   total plane-waves  NPLWV = ******
   max r-space proj   IRMAX =   5807   max aug-charges    IRDMAX=  13820
   dimension x,y,z NGX =    72 NGY =   72 NGZ =  196
   dimension x,y,z NGXF=   144 NGYF=  144 NGZF=  392
   support grid    NGXF=   144 NGYF=  144 NGZF=  392
   ions per type =              64   1   1   1
   NGX,Y,Z   is equivalent  to a cutoff of  10.90, 10.90, 10.86 a.u.
   NGXF,Y,Z  is equivalent  to a cutoff of  21.80, 21.80, 21.72 a.u.

 SYSTEM =  Pd_100_surface                          
 POSCAR =  Pd N O H                                

 Startparameter for this run:
   NWRITE =      2    write-flag & timer
   PREC   = accura    normal or accurate (medium, high low for compatibility)
   ISTART =      0    job   : 0-new  1-cont  2-samecut
   ICHARG =      2    charge: 1-file 2-atom 10-const
   ISPIN  =      2    spin polarized calculation?
   LNONCOLLINEAR =      F non collinear calculations
   LSORBIT =      F    spin-orbit coupling
   INIWAV =      1    electr: 0-lowe 1-rand  2-diag
   LASPH  =      F    aspherical Exc in radial PAW
   METAGGA=      F    non-selfconsistent MetaGGA calc.

 Electronic Relaxation 1
   ENCUT  =  400.0 eV  29.40 Ry    5.42 a.u.  17.91 17.91 48.92*2*pi/ulx,y,z
   ENINI  =  400.0     initial cutoff
   ENAUG  =  627.1 eV  augmentation charge cutoff
   NELM   =    100;   NELMIN=  2; NELMDL=  0     # of ELM steps 
   EDIFF  = 0.1E-04   stopping-criterion for ELM
   LREAL  =      T    real-space projection
   NLSPLINE    = F    spline interpolate recip. space projectors
   LCOMPAT=      F    compatible to vasp.4.4
   GGA_COMPAT  = T    GGA compatible to vasp.4.4-vasp.4.6
   LMAXPAW     = -100 max onsite density
   LMAXMIX     =    2 max onsite mixed and CHGCAR
   VOSKOWN=      0    Vosko Wilk Nusair interpolation
   ROPT   =   -0.00025  -0.00025  -0.00025  -0.00025
 Ionic relaxation
   EDIFFG = -.2E-01   stopping-criterion for IOM
   NSW    =    100    number of steps for IOM
   NBLOCK =      1;   KBLOCK =    100    inner block; outer block 
   IBRION =      2    ionic relax: 0-MD 1-quasi-New 2-CG
   NFREE  =      1    steps in history (QN), initial steepest desc. (CG)
   ISIF   =      2    stress and relaxation
   IWAVPR =     11    prediction:  0-non 1-charg 2-wave 3-comb
   ISYM   =      2    0-nonsym 1-usesym 2-fastsym
   LCORR  =      T    Harris-Foulkes like correction to forces

   POTIM  = 0.5000    time-step for ionic-motion
   TEIN   =    0.0    initial temperature
   TEBEG  =    0.0;   TEEND  =   0.0 temperature during run
   SMASS  =  -3.00    Nose mass-parameter (am)
   estimated Nose-frequenzy (Omega)   =  0.10E-29 period in steps =****** mass=  -0.276E-26a.u.
   SCALEE = 1.0000    scale energy and forces
   NPACO  =    256;   APACO  = 16.0  distance and # of slots for P.C.
   PSTRESS=    0.0 pullay stress

  Mass of Ions in am
   POMASS = 106.42 14.00 16.00  1.00
  Ionic Valenz
   ZVAL   =  10.00  5.00  6.00  1.00
  Atomic Wigner-Seitz radii
   RWIGS  =  -1.00 -1.00 -1.00 -1.00
  virtual crystal weights 
   VCA    =   1.00  1.00  1.00  1.00
   NELECT =     652.0000    total number of electrons
   NUPDOWN=      -1.0000    fix difference up-down

 DOS related values:
   EMIN   =  10.00;   EMAX   =-10.00  energy-range for DOS
   EFERMI =   0.00
   ISMEAR =     1;   SIGMA  =   0.20  broadening in eV -4-tet -1-fermi 0-gaus

 Electronic relaxation 2 (details)
   IALGO  =     68    algorithm
   LDIAG  =      T    sub-space diagonalisation (order eigenvalues)
   LSUBROT=      F    optimize rotation matrix (better conditioning)
   TURBO    =      0    0=normal 1=particle mesh
   IRESTART =      0    0=no restart 2=restart with 2 vectors
   NREBOOT  =      0    no. of reboots
   NMIN     =      0    reboot dimension
   EREF     =   0.00    reference energy to select bands
   IMIX   =      4    mixing-type and parameters
     AMIX     =   0.40;   BMIX     =  1.00
     AMIX_MAG =   1.60;   BMIX_MAG =  1.00
     AMIN     =   0.10
     WC   =   100.;   INIMIX=   1;  MIXPRE=   1;  MAXMIX= -45

 Intra band minimization:
   WEIMIN = 0.0010     energy-eigenvalue tresh-hold
   EBREAK =  0.43E-08  absolut break condition
   DEPER  =   0.30     relativ break condition  

   TIME   =   0.40     timestep for ELM

  volume/ion in A,a.u.               =      54.00       364.42
  Fermi-wavevector in a.u.,A,eV,Ry     =   0.924690  1.747410 11.633674  0.855051
  Thomas-Fermi vector in A             =   2.050463
 
 Write flags
   LWAVE        =      F    write WAVECAR
   LDOWNSAMPLE  =      F    k-point downsampling of WAVECAR
   LCHARG       =      F    write CHGCAR
   LVTOT        =      F    write LOCPOT, total local potential
   LVHAR        =      F    write LOCPOT, Hartree potential only
   LELF         =      F    write electronic localiz. function (ELF)
   LORBIT       =     11    0 simple, 1 ext, 2 COOP (PROOUT), +10 PAW based schemes


 Dipole corrections
   LMONO  =      F    monopole corrections only (constant potential shift)
   LDIPOL =      T    correct potential (dipole corrections)
   IDIPOL =      3    1-x, 2-y, 3-z, 4-all directions 
   EPSILON=  1.0000000 bulk dielectric constant

 Exchange correlation treatment:
   GGA     =    --    GGA type
   LEXCH   =     8    internal setting for exchange type
   VOSKOWN=      0    Vosko Wilk Nusair interpolation
   LHFCALC =     F    Hartree Fock is set to
   LHFONE  =     F    Hartree Fock one center treatment
   AEXX    =    0.0000 exact exchange contribution

 Linear response parameters
   LEPSILON=     F    determine dielectric tensor
   LRPA    =     F    only Hartree local field effects (RPA)
   LNABLA  =     F    use nabla operator in PAW spheres
   LVEL    =     F    velocity operator in full k-point grid
   LINTERFAST=   F  fast interpolation
   KINTER  =     0    interpolate to denser k-point grid
   CSHIFT  =0.1000    complex shift for real part using Kramers Kronig
   OMEGAMAX=  -1.0    maximum frequency
   DEG_THRESHOLD= 0.2000000E-02 threshold for treating states as degnerate
   RTIME   =   -0.100 relaxation time in fs
  (WPLASMAI=    0.000 imaginary part of plasma frequency in eV, 0.658/RTIME)
   DFIELD  = 0.0000000 0.0000000 0.0000000 field for delta impulse in time
 
 Orbital magnetization related:
   ORBITALMAG=     F  switch on orbital magnetization
   LCHIMAG   =     F  perturbation theory with respect to B field
   DQ        =  0.001000  dq finite difference perturbation B field
   LLRAUG    =     F  two centre corrections for induced B field



--------------------------------------------------------------------------------------------------------


 conjugate gradient relaxation of ions
   using selective dynamics as specified on POSCAR
 charge density and potential will be updated during run
 spin polarized calculation
 RMM-DIIS sequential band-by-band and
  variant of blocked Davidson during initial phase
 perform sub-space diagonalisation
    before iterative eigenvector-optimisation
 modified Broyden-mixing scheme, WC =      100.0
 initial mixing is a Kerker type mixing with AMIX =  0.4000 and BMIX =      1.0000
 Hartree-type preconditioning will be used
 using additional bands          250
 real space projection scheme for non local part
 use partial core corrections
 calculate Harris-corrections to forces 
   (improved forces if not selfconsistent)
 use gradient corrections 
 use of overlap-Matrix (Vanderbilt PP)
 Methfessel and Paxton  Order N= 1 SIGMA  =   0.20


--------------------------------------------------------------------------------------------------------


  energy-cutoff  :      400.00
  volume of cell :     3618.13
      direct lattice vectors                 reciprocal lattice vectors
    10.982000000  0.000000000  0.000000000     0.091058095  0.000000000  0.000000000
     0.000000000 10.982000000  0.000000000     0.000000000  0.091058095  0.000000000
     0.000000000  0.000000000 30.000000000     0.000000000  0.000000000  0.033333333

  length of vectors
    10.982000000 10.982000000 30.000000000     0.091058095  0.091058095  0.033333333


 
 k-points in units of 2pi/SCALE and weight: K-Point Grid                            
   0.01138226  0.01138226  0.00000000       0.125
   0.03414679  0.01138226  0.00000000       0.125
  -0.03414679  0.01138226  0.00000000       0.125
  -0.01138226  0.01138226  0.00000000       0.125
   0.01138226  0.03414679  0.00000000       0.125
   0.03414679  0.03414679  0.00000000       0.125
  -0.03414679  0.03414679  0.00000000       0.125
  -0.01138226  0.03414679  0.00000000       0.125
 
 k-points in reciprocal lattice and weights: K-Point Grid                            
   0.12500000  0.12500000  0.00000000       0.125
   0.37500000  0.12500000  0.00000000       0.125
  -0.37500000  0.12500000  0.00000000       0.125
  -0.12500000  0.12500000  0.00000000       0.125
   0.12500000  0.37500000  0.00000000       0.125
   0.37500000  0.37500000  0.00000000       0.125
  -0.37500000  0.37500000  0.00000000       0.125
  -0.12500000  0.37500000  0.00000000       0.125
 
 position of ions in fractional coordinates (direct lattice) 
   0.12499955  0.12499955  0.40293227
   0.12499955  0.37499864  0.40293227
   0.12499955  0.62499774  0.40293227
   0.12499955  0.87499683  0.40293227
   0.37499864  0.12499955  0.40293227
   0.37499864  0.37499864  0.40293227
   0.37499864  0.62499774  0.40293227
   0.37499864  0.87499683  0.40293227
   0.62499774  0.12499955  0.40293227
   0.62499774  0.37499864  0.40293227
   0.62499774  0.62499774  0.40293227
   0.62499774  0.87499683  0.40293227
   0.87499683  0.12499955  0.40293227
   0.87499683  0.37499864  0.40293227
   0.87499683  0.62499774  0.40293227
   0.87499683  0.87499683  0.40293227
   0.00025719  0.00035534  0.46821172
   0.00022418  0.24969471  0.46791272
   0.00035762  0.50049625  0.46805835
   0.99996856  0.74998512  0.46801348
   0.24976774  0.00001446  0.46806186
   0.25010331  0.24982154  0.46814264
   0.25024958  0.49975902  0.46810348
   0.24972845  0.74947915  0.46812289
   0.50034413  0.00006847  0.46805413
   0.49993030  0.24986363  0.46803777
   0.49978572  0.49978761  0.46808042
   0.50047923  0.74957199  0.46808474
   0.74996790  0.00031566  0.46824051
   0.74982446  0.24962329  0.46793153
   0.74962817  0.50057645  0.46807873
   0.75015674  0.75003894  0.46810514
   0.12661980  0.12618513  0.53386486
   0.12403674  0.37492893  0.53273262
   0.12654428  0.62327226  0.53386903
   0.12485762  0.87474425  0.53292797
   0.37519689  0.12462820  0.53328442
   0.37502211  0.37439111  0.53284063
   0.37513346  0.62473818  0.53317194
   0.37513443  0.87465292  0.53261456
   0.62364615  0.12642388  0.53383587
   0.62585673  0.37503911  0.53269538
   0.62347592  0.62338214  0.53387267
   0.62528216  0.87493302  0.53293551
   0.87513559  0.12492158  0.53286637
   0.87496523  0.37509168  0.53256067
   0.87509575  0.62498222  0.53298327
   0.87522232  0.87488638  0.53289539
   0.99988234  0.99950830  0.59824241
   0.99791040  0.25021401  0.59825693
   0.99891645  0.49928000  0.59835529
   0.99956616  0.75018942  0.59831116
   0.25059549  0.99793961  0.59816055
   0.24466473  0.24726823  0.59988811
   0.24562476  0.50140552  0.60035555
   0.25027375  0.75058547  0.59814172
   0.50002742  0.99842128  0.59816721
   0.50531645  0.24754465  0.59992178
   0.50422702  0.50155420  0.60045053
   0.49985418  0.75097656  0.59830190
   0.75075680  0.99966306  0.59823406
   0.75188355  0.25035917  0.59819362
   0.75102970  0.49940055  0.59836499
   0.75058076  0.75027700  0.59811946
   0.37480643  0.44035658  0.64389762
   0.37474734  0.31625789  0.64868653
   0.37450605  0.47723067  0.67557662
 
 position of ions in cartesian coordinates  (Angst):
   1.37274503  1.37274503 12.08796804
   1.37274503  4.11823509 12.08796804
   1.37274503  6.86372514 12.08796804
   1.37274503  9.60921520 12.08796804
   4.11823509  1.37274503 12.08796804
   4.11823509  4.11823509 12.08796804
   4.11823509  6.86372514 12.08796804
   4.11823509  9.60921520 12.08796804
   6.86372514  1.37274503 12.08796804
   6.86372514  4.11823509 12.08796804
   6.86372514  6.86372514 12.08796804
   6.86372514  9.60921520 12.08796804
   9.60921520  1.37274503 12.08796804
   9.60921520  4.11823509 12.08796804
   9.60921520  6.86372514 12.08796804
   9.60921520  9.60921520 12.08796804
   0.00282442  0.00390234 14.04635160
   0.00246189  2.74214733 14.03738165
   0.00392737  5.49644977 14.04175045
  10.98165478  8.23633661 14.04040427
   2.74294937  0.00015879 14.04185584
   2.74663460  2.74354015 14.04427925
   2.74824089  5.48835354 14.04310447
   2.74251779  8.23078007 14.04368668
   5.49477925  0.00075194 14.04162377
   5.49023460  2.74400238 14.04113300
   5.48864683  5.48866750 14.04241249
   5.49626292  8.23179963 14.04254207
   8.23614750  0.00346653 14.04721539
   8.23457221  2.74136295 14.03794599
   8.23241660  5.49733058 14.04236175
   8.23822128  8.23692767 14.04315406
   1.39053868  1.38576506 16.01594594
   1.36217152  4.11746950 15.98197845
   1.38970923  6.84477596 16.01607080
   1.37118637  9.60644136 15.98783919
   4.12041222  1.36866691 15.99853259
   4.11849282  4.11156320 15.98521878
   4.11971568  6.86087474 15.99515816
   4.11972630  9.60543839 15.97843672
   6.84888201  1.38838709 16.01507604
   6.87315866  4.11867949 15.98086142
   6.84701258  6.84598270 16.01618002
   6.86684873  9.60851440 15.98806538
   9.61073903  1.37188879 15.98599103
   9.60886814  4.11925685 15.97681996
   9.61030149  6.86355472 15.98949798
   9.61169150  9.60800222 15.98686178
  10.98070790 10.97660015 17.94727217
  10.95905202  2.74785031 17.94770784
  10.97010042  5.48309292 17.95065867
  10.97723557  8.23858025 17.94933467
   2.75203963 10.95937276 17.94481651
   2.68690804  2.71549971 17.99664324
   2.69745108  5.50643541 18.01066647
   2.74850628  8.24292968 17.94425161
   5.49130111 10.96466253 17.94501634
   5.54938525  2.71853531 17.99765350
   5.53742116  5.50806821 18.01351593
   5.48939864  8.24722457 17.94905686
   8.24481114 10.97829969 17.94702177
   8.25718511  2.74944441 17.94580854
   8.24780815  5.48441684 17.95094977
   8.24287789  8.23954201 17.94358385
   4.11612424  4.83599595 19.31692874
   4.11547527  3.47314416 19.46059581
   4.11282540  5.24094726 20.26729847
 


--------------------------------------------------------------------------------------------------------


 k-point  1 :   0.1250 0.1250 0.0000  plane waves:   65671
 k-point  2 :   0.3750 0.1250 0.0000  plane waves:   65719
 k-point  3 :  -0.3750 0.1250 0.0000  plane waves:   65719
 k-point  4 :  -0.1250 0.1250 0.0000  plane waves:   65671
 k-point  5 :   0.1250 0.3750 0.0000  plane waves:   65719
 k-point  6 :   0.3750 0.3750 0.0000  plane waves:   65776
 k-point  7 :  -0.3750 0.3750 0.0000  plane waves:   65776
 k-point  8 :  -0.1250 0.3750 0.0000  plane waves:   65719

 maximum and minimum number of plane-waves per node :     65776    65671

 maximum number of plane-waves:     65776
 maximum index in each direction: 
   IXMAX=   18   IYMAX=   17   IZMAX=   48
   IXMIN=  -18   IYMIN=  -18   IZMIN=  -48


 serial   3D FFT for wavefunctions
 parallel 3D FFT for charge:
    minimum data exchange during FFTs selected (reduces bandwidth)


 total amount of memory used by VASP MPI-rank0   227335. kBytes
=======================================================================

   base      :      30000. kBytes
   nonlr-proj:      50763. kBytes
   fftplans  :       5987. kBytes
   grid      :      86893. kBytes
   one-center:       2083. kBytes
   wavefun   :      51609. kBytes
 
     INWAV:  cpu time    0.0000: real time    0.0000
 Broyden mixing: mesh for mixing (old mesh)
   NGX = 35   NGY = 35   NGZ = 97
  (NGX  =144   NGY  =144   NGZ  =392)
  gives a total of 118825 points

 initial charge density was supplied:
 charge density of overlapping atoms calculated
 number of electron     652.0000000 magnetization      67.0000000
 keeping initial charge density in first step


--------------------------------------------------------------------------------------------------------


 Maximum index for non-local projection operator         5569
 Maximum index for augmentation-charges          679 (set IRDMAX)


--------------------------------------------------------------------------------------------------------


 First call to EWALD:  gamma=   0.115
 Maximum number of real-space cells 4x 4x 2
 Maximum number of reciprocal cells 2x 2x 5

    FEWALD:  cpu time    0.0126: real time    0.0063


--------------------------------------- Iteration      1(   1)  ---------------------------------------


    POTLOK:  cpu time    0.5409: real time    0.3689
    SETDIJ:  cpu time    0.0481: real time    0.0275
     EDDAV:  cpu time  124.3636: real time   62.2009
       DOS:  cpu time    0.0200: real time    0.0100
    --------------------------------------------
      LOOP:  cpu time  124.9726: real time   62.6073

 eigenvalue-minimisations  : 18432
 total energy-change (2. order) : 0.3258155E+04  (-0.2433822E+05)
 number of electron     652.0000000 magnetization      67.0000000
 augmentation part      652.0000000 magnetization      67.0000000

 DIPCOR: dipole corrections for dipol
 direction  3 min pos     1,
 dipolmoment           0.000000      0.000000     -0.000068 electrons x Angstroem
 Tr[quadrupol]    -13576.612317

 energy correction for charged system         0.000000 eV
 dipol+quadrupol energy correction           -0.000000 eV
 added-field ion interaction          0.000227 eV  (added to PSCEN)


 Free energy of the ion-electron system (eV)
  ---------------------------------------------------
  alpha Z        PSCENC =       760.16367532
  Ewald energy   TEWEN  =    383085.84327511
  -Hartree energ DENC   =   -436030.31116179
  -exchange      EXHF   =         0.00000000
  -V(xc)+E(xc)   XCENC  =     -1828.36836648
  PAW double counting   =     52178.46402774   -48199.64973638
  entropy T*S    EENTRO =         0.00495126
  eigenvalues    EBANDS =       759.18200552
  atomic energy  EATOM  =     52532.82595619
  Solvation  Ediel_sol  =         0.00000000
  ---------------------------------------------------
  free energy    TOTEN  =      3258.15462649 eV

  energy without entropy =     3258.14967523  energy(sigma->0) =     3258.15297607


--------------------------------------------------------------------------------------------------------




--------------------------------------- Iteration      1(   2)  ---------------------------------------


     EDDAV:  cpu time  146.8541: real time   73.4391
       DOS:  cpu time    0.0051: real time    0.0025
    --------------------------------------------
      LOOP:  cpu time  146.8592: real time   73.4416

 eigenvalue-minimisations  : 20352
 total energy-change (2. order) :-0.3493693E+04  (-0.3325891E+04)
 number of electron     652.0000000 magnetization      67.0000000
 augmentation part      652.0000000 magnetization      67.0000000

 DIPCOR: dipole corrections for dipol
 direction  3 min pos     1,
 dipolmoment           0.000000      0.000000     -0.000068 electrons x Angstroem
 Tr[quadrupol]    -13576.612317

 energy correction for charged system         0.000000 eV
 dipol+quadrupol energy correction           -0.000000 eV
 added-field ion interaction          0.000227 eV  (added to PSCEN)


 Free energy of the ion-electron system (eV)
  ---------------------------------------------------
  alpha Z        PSCENC =       760.16367532
  Ewald energy   TEWEN  =    383085.84327511
  -Hartree energ DENC   =   -436030.31116179
  -exchange      EXHF   =         0.00000000
  -V(xc)+E(xc)   XCENC  =     -1828.36836648
  PAW double counting   =     52178.46402774   -48199.64973638
  entropy T*S    EENTRO =         0.10937719
  eigenvalues    EBANDS =     -2734.61529878
  atomic energy  EATOM  =     52532.82595619
  Solvation  Ediel_sol  =         0.00000000
  ---------------------------------------------------
  free energy    TOTEN  =      -235.53825189 eV

  energy without entropy =     -235.64762908  energy(sigma->0) =     -235.57471095


--------------------------------------------------------------------------------------------------------




--------------------------------------- Iteration      1(   3)  ---------------------------------------


     EDDAV:  cpu time  212.1323: real time  106.3064
       DOS:  cpu time    0.0056: real time    0.0028
    --------------------------------------------
      LOOP:  cpu time  212.1379: real time  106.3092

 eigenvalue-minimisations  : 24576
 total energy-change (2. order) :-0.1033204E+03  (-0.1020651E+03)
 number of electron     652.0000000 magnetization      67.0000000
 augmentation part      652.0000000 magnetization      67.0000000

 DIPCOR: dipole corrections for dipol
 direction  3 min pos     1,
 dipolmoment           0.000000      0.000000     -0.000068 electrons x Angstroem
 Tr[quadrupol]    -13576.612317

 energy correction for charged system         0.000000 eV
 dipol+quadrupol energy correction           -0.000000 eV
 added-field ion interaction          0.000227 eV  (added to PSCEN)


 Free energy of the ion-electron system (eV)
  ---------------------------------------------------
  alpha Z        PSCENC =       760.16367532
  Ewald energy   TEWEN  =    383085.84327511
  -Hartree energ DENC   =   -436030.31116179
  -exchange      EXHF   =         0.00000000
  -V(xc)+E(xc)   XCENC  =     -1828.36836648
  PAW double counting   =     52178.46402774   -48199.64973638
  entropy T*S    EENTRO =         0.14735055
  eigenvalues    EBANDS =     -2837.97368401
  atomic energy  EATOM  =     52532.82595619
  Solvation  Ediel_sol  =         0.00000000
  ---------------------------------------------------
  free energy    TOTEN  =      -338.85866375 eV

  energy without entropy =     -339.00601430  energy(sigma->0) =     -338.90778060


--------------------------------------------------------------------------------------------------------




--------------------------------------- Iteration      1(   4)  ---------------------------------------


     EDDAV:  cpu time  159.1419: real time   80.3641
       DOS:  cpu time    0.0051: real time    0.0026
    --------------------------------------------
      LOOP:  cpu time  159.1470: real time   80.3666

 eigenvalue-minimisations  : 21312
 total energy-change (2. order) :-0.1540282E+01  (-0.1539895E+01)
 number of electron     652.0000000 magnetization      67.0000000
 augmentation part      652.0000000 magnetization      67.0000000

 DIPCOR: dipole corrections for dipol
 direction  3 min pos     1,
 dipolmoment           0.000000      0.000000     -0.000068 electrons x Angstroem
 Tr[quadrupol]    -13576.612317

 energy correction for charged system         0.000000 eV
 dipol+quadrupol energy correction           -0.000000 eV
 added-field ion interaction          0.000227 eV  (added to PSCEN)


 Free energy of the ion-electron system (eV)
  ---------------------------------------------------
  alpha Z        PSCENC =       760.16367532
  Ewald energy   TEWEN  =    383085.84327511
  -Hartree energ DENC   =   -436030.31116179
  -exchange      EXHF   =         0.00000000
  -V(xc)+E(xc)   XCENC  =     -1828.36836648
  PAW double counting   =     52178.46402774   -48199.64973638
  entropy T*S    EENTRO =         0.14888793
  eigenvalues    EBANDS =     -2839.51550343
  atomic energy  EATOM  =     52532.82595619
  Solvation  Ediel_sol  =         0.00000000
  ---------------------------------------------------
  free energy    TOTEN  =      -340.39894579 eV

  energy without entropy =     -340.54783372  energy(sigma->0) =     -340.44857510


--------------------------------------------------------------------------------------------------------




--------------------------------------- Iteration      1(   5)  ---------------------------------------


     EDDAV:  cpu time  261.7405: real time  131.1743
       DOS:  cpu time    0.0051: real time    0.0025
    CHARGE:  cpu time    2.3170: real time    1.9468
    MIXING:  cpu time    0.0724: real time    0.0363
    --------------------------------------------
      LOOP:  cpu time  264.1352: real time  133.1600

 eigenvalue-minimisations  : 28800
 total energy-change (2. order) :-0.7586559E-01  (-0.7586514E-01)
 number of electron     651.9999510 magnetization      64.6392690
 augmentation part      260.2688692 magnetization      50.7398457

 DIPCOR: dipole corrections for dipol
 direction  3 min pos     1,
 dipolmoment           0.000000      0.000000     -0.000068 electrons x Angstroem
 Tr[quadrupol]    -13576.612317

 energy correction for charged system         0.000000 eV
 dipol+quadrupol energy correction           -0.000000 eV
 added-field ion interaction          0.000227 eV  (added to PSCEN)


 Broyden mixing:
  rms(total) = 0.58413E+01    rms(broyden)= 0.58405E+01
  rms(prec ) = 0.58959E+01
  weight for this iteration     100.00

 Free energy of the ion-electron system (eV)
  ---------------------------------------------------
  alpha Z        PSCENC =       760.16367532
  Ewald energy   TEWEN  =    383085.84327511
  -Hartree energ DENC   =   -436030.31116179
  -exchange      EXHF   =         0.00000000
  -V(xc)+E(xc)   XCENC  =     -1828.36836648
  PAW double counting   =     52178.46402774   -48199.64973638
  entropy T*S    EENTRO =         0.14893248
  eigenvalues    EBANDS =     -2839.59141357
  atomic energy  EATOM  =     52532.82595619
  Solvation  Ediel_sol  =         0.00000000
  ---------------------------------------------------
  free energy    TOTEN  =      -340.47481138 eV

  energy without entropy =     -340.62374387  energy(sigma->0) =     -340.52445555


--------------------------------------------------------------------------------------------------------




--------------------------------------- Iteration      1(   6)  ---------------------------------------


    POTLOK:  cpu time    0.3477: real time    0.2482
    SETDIJ:  cpu time    0.0268: real time    0.0161
    EDDIAG:  cpu time   15.2426: real time    7.6223
  RMM-DIIS:  cpu time   35.0986: real time   17.8250
    ORTHCH:  cpu time    3.9473: real time    1.9843
       DOS:  cpu time    0.0052: real time    0.0026
    CHARGE:  cpu time    2.4729: real time    2.1366
    MIXING:  cpu time    0.0177: real time    0.0088
    --------------------------------------------
      LOOP:  cpu time   57.1588: real time   29.8439

 eigenvalue-minimisations  : 18448
 total energy-change (2. order) : 0.2644782E+02  (-0.5289983E+01)
 number of electron     651.9999496 magnetization      61.7332869
 augmentation part      270.9470935 magnetization      46.5207773

 DIPCOR: dipole corrections for dipol
 direction  3 min pos     1,
 dipolmoment           0.000000      0.000000     -0.104656 electrons x Angstroem
 Tr[quadrupol]    -13582.400479

 energy correction for charged system         0.000000 eV
 dipol+quadrupol energy correction           -0.000274 eV
 added-field ion interaction          0.352193 eV  (added to PSCEN)


 Broyden mixing:
  rms(total) = 0.32851E+01    rms(broyden)= 0.32845E+01
  rms(prec ) = 0.33554E+01
  weight for this iteration     100.00

 eigenvalues of (default mixing * dielectric matrix)
  average eigenvalue GAMMA=   1.0277
  1.0277

 Free energy of the ion-electron system (eV)
  ---------------------------------------------------
  alpha Z        PSCENC =       760.51536715
  Ewald energy   TEWEN  =    383085.84327511
  -Hartree energ DENC   =   -435852.43537336
  -exchange      EXHF   =         0.00000000
  -V(xc)+E(xc)   XCENC  =     -1831.49720467
  PAW double counting   =     55953.96607393   -52051.87329284
  entropy T*S    EENTRO =         0.08475994
  eigenvalues    EBANDS =     -2911.45654969
  atomic energy  EATOM  =     52532.82595619
  Solvation  Ediel_sol  =         0.00000000
  ---------------------------------------------------
  free energy    TOTEN  =      -314.02698822 eV

  energy without entropy =     -314.11174816  energy(sigma->0) =     -314.05524154


--------------------------------------------------------------------------------------------------------




--------------------------------------- Iteration      1(   7)  ---------------------------------------


    POTLOK:  cpu time    0.3704: real time    0.2349
    SETDIJ:  cpu time    0.0251: real time    0.0153
    EDDIAG:  cpu time   15.2705: real time    7.6370
  RMM-DIIS:  cpu time   35.7235: real time   18.4465
    ORTHCH:  cpu time    3.9539: real time    1.9844
       DOS:  cpu time    0.0052: real time    0.0026
    CHARGE:  cpu time    2.8405: real time    2.5055
    MIXING:  cpu time    0.0060: real time    0.0030
    --------------------------------------------
      LOOP:  cpu time   58.1950: real time   30.8291

 eigenvalue-minimisations  : 18456
 total energy-change (2. order) :-0.2678510E+02  (-0.2387201E+01)
 number of electron     651.9999458 magnetization      60.5010042
 augmentation part      267.2061334 magnetization      47.1834029

 DIPCOR: dipole corrections for dipol
 direction  3 min pos     1,
 dipolmoment           0.000000      0.000000      1.311848 electrons x Angstroem
 Tr[quadrupol]    -13591.910869

 energy correction for charged system         0.000000 eV
 dipol+quadrupol energy correction           -0.043034 eV
 added-field ion interaction         -4.414676 eV  (added to PSCEN)


 Broyden mixing:
  rms(total) = 0.51437E+01    rms(broyden)= 0.51432E+01
  rms(prec ) = 0.65111E+01
  weight for this iteration     100.00

 eigenvalues of (default mixing * dielectric matrix)
  average eigenvalue GAMMA=   0.7876
  1.2544  0.3207

 Free energy of the ion-electron system (eV)
  ---------------------------------------------------
  alpha Z        PSCENC =       755.70573806
  Ewald energy   TEWEN  =    383085.84327511
  -Hartree energ DENC   =   -436221.89944713
  -exchange      EXHF   =         0.00000000
  -V(xc)+E(xc)   XCENC  =     -1825.39632890
  PAW double counting   =     58850.50595700   -54980.26540732
  entropy T*S    EENTRO =        -0.05839337
  eigenvalues    EBANDS =     -2538.07343808
  atomic energy  EATOM  =     52532.82595619
  Solvation  Ediel_sol  =         0.00000000
  ---------------------------------------------------
  free energy    TOTEN  =      -340.81208844 eV

  energy without entropy =     -340.75369507  energy(sigma->0) =     -340.79262398


--------------------------------------------------------------------------------------------------------




--------------------------------------- Iteration      1(   8)  ---------------------------------------


    POTLOK:  cpu time    0.3748: real time    0.2236
    SETDIJ:  cpu time    0.0253: real time    0.0154
    EDDIAG:  cpu time   15.3610: real time    7.6815
  RMM-DIIS:  cpu time   34.9822: real time   17.5847
    ORTHCH:  cpu time    3.9461: real time    1.9803
       DOS:  cpu time    0.0049: real time    0.0025
    CHARGE:  cpu time    2.6345: real time    2.3028
    MIXING:  cpu time    0.0051: real time    0.0025
    --------------------------------------------
      LOOP:  cpu time   57.3339: real time   29.7933

 eigenvalue-minimisations  : 18440
 total energy-change (2. order) : 0.1340659E+02  (-0.2231105E+01)
 number of electron     651.9999516 magnetization      57.9329108
 augmentation part      268.3164800 magnetization      42.0911316

 DIPCOR: dipole corrections for dipol
 direction  3 min pos     1,
 dipolmoment           0.000000      0.000000     -1.702657 electrons x Angstroem
 Tr[quadrupol]    -13593.838207

 energy correction for charged system         0.000000 eV
 dipol+quadrupol energy correction           -0.072494 eV
 added-field ion interaction          5.729836 eV  (added to PSCEN)


 Broyden mixing:
  rms(total) = 0.40692E+01    rms(broyden)= 0.40686E+01
  rms(prec ) = 0.52731E+01
  weight for this iteration     100.00

 eigenvalues of (default mixing * dielectric matrix)
  average eigenvalue GAMMA=   0.8834
  1.8662  0.6441  0.1398

 Free energy of the ion-electron system (eV)
  ---------------------------------------------------
  alpha Z        PSCENC =       765.82079037
  Ewald energy   TEWEN  =    383085.84327511
  -Hartree energ DENC   =   -436254.37792120
  -exchange      EXHF   =         0.00000000
  -V(xc)+E(xc)   XCENC  =     -1823.06784908
  PAW double counting   =     59644.11209496   -55786.29962423
  entropy T*S    EENTRO =        -0.11736794
  eigenvalues    EBANDS =     -2492.14485083
  atomic energy  EATOM  =     52532.82595619
  Solvation  Ediel_sol  =         0.00000000
  ---------------------------------------------------
  free energy    TOTEN  =      -327.40549665 eV

  energy without entropy =     -327.28812871  energy(sigma->0) =     -327.36637400


--------------------------------------------------------------------------------------------------------




--------------------------------------- Iteration      1(   9)  ---------------------------------------


    POTLOK:  cpu time    0.3715: real time    0.2200
    SETDIJ:  cpu time    0.0255: real time    0.0155
    EDDIAG:  cpu time   15.4805: real time    7.7414
  RMM-DIIS:  cpu time   36.2257: real time   18.8904
    ORTHCH:  cpu time    7.1935: real time    3.6131
       DOS:  cpu time    0.0051: real time    0.0025
    CHARGE:  cpu time    2.3841: real time    2.0439
    MIXING:  cpu time    0.0049: real time    0.0025
    --------------------------------------------
      LOOP:  cpu time   61.6908: real time   32.5294

 eigenvalue-minimisations  : 18473
 total energy-change (2. order) : 0.2479237E+02  (-0.1328799E+01)
 number of electron     651.9999480 magnetization      57.1134586
 augmentation part      271.5294488 magnetization      43.3486226

 DIPCOR: dipole corrections for dipol
 direction  3 min pos     1,
 dipolmoment           0.000000      0.000000     -0.022971 electrons x Angstroem
 Tr[quadrupol]    -13594.504808

 energy correction for charged system         0.000000 eV
 dipol+quadrupol energy correction           -0.000013 eV
 added-field ion interaction          0.077303 eV  (added to PSCEN)


 Broyden mixing:
  rms(total) = 0.42337E+01    rms(broyden)= 0.42332E+01
  rms(prec ) = 0.49744E+01
  weight for this iteration     100.00

 eigenvalues of (default mixing * dielectric matrix)
  average eigenvalue GAMMA=   0.7518
  2.0203  0.6780  0.1929  0.1158

 Free energy of the ion-electron system (eV)
  ---------------------------------------------------
  alpha Z        PSCENC =       760.24073737
  Ewald energy   TEWEN  =    383085.84327511
  -Hartree energ DENC   =   -436243.93148758
  -exchange      EXHF   =         0.00000000
  -V(xc)+E(xc)   XCENC  =     -1817.65285540
  PAW double counting   =     60991.58431004   -57156.63629902
  entropy T*S    EENTRO =        -0.01113914
  eigenvalues    EBANDS =     -2454.87562476
  atomic energy  EATOM  =     52532.82595619
  Solvation  Ediel_sol  =         0.00000000
  ---------------------------------------------------
  free energy    TOTEN  =      -302.61312719 eV

  energy without entropy =     -302.60198805  energy(sigma->0) =     -302.60941414


--------------------------------------------------------------------------------------------------------




--------------------------------------- Iteration      1(  10)  ---------------------------------------


    POTLOK:  cpu time    0.3916: real time    0.2247
    SETDIJ:  cpu time    0.0250: real time    0.0153
    EDDIAG:  cpu time   15.2758: real time    7.6396
  RMM-DIIS:  cpu time   35.4977: real time   18.3684
    ORTHCH:  cpu time    3.9400: real time    1.9773
       DOS:  cpu time    0.0052: real time    0.0026
    CHARGE:  cpu time    2.1623: real time    1.8321
    MIXING:  cpu time    0.0073: real time    0.0037
    --------------------------------------------
      LOOP:  cpu time   57.3051: real time   30.0637

 eigenvalue-minimisations  : 18466
 total energy-change (2. order) : 0.1554057E+02  (-0.4437342E+00)
 number of electron     651.9999497 magnetization      55.8180316
 augmentation part      272.2344877 magnetization      39.5388634

 DIPCOR: dipole corrections for dipol
 direction  3 min pos     1,
 dipolmoment           0.000000      0.000000     -0.337144 electrons x Angstroem
 Tr[quadrupol]    -13594.530430

 energy correction for charged system         0.000000 eV
 dipol+quadrupol energy correction           -0.002842 eV
 added-field ion interaction          1.134569 eV  (added to PSCEN)


 Broyden mixing:
  rms(total) = 0.17706E+01    rms(broyden)= 0.17700E+01
  rms(prec ) = 0.18837E+01
  weight for this iteration     100.00

 eigenvalues of (default mixing * dielectric matrix)
  average eigenvalue GAMMA=   0.6828
  2.1010  0.6924  0.3360  0.1697  0.1147

 Free energy of the ion-electron system (eV)
  ---------------------------------------------------
  alpha Z        PSCENC =       761.29517440
  Ewald energy   TEWEN  =    383085.84327511
  -Hartree energ DENC   =   -436245.42469668
  -exchange      EXHF   =         0.00000000
  -V(xc)+E(xc)   XCENC  =     -1815.74141026
  PAW double counting   =     61273.25930592   -57441.86667954
  entropy T*S    EENTRO =        -0.10156437
  eigenvalues    EBANDS =     -2437.16191683
  atomic energy  EATOM  =     52532.82595619
  Solvation  Ediel_sol  =         0.00000000
  ---------------------------------------------------
  free energy    TOTEN  =      -287.07255607 eV

  energy without entropy =     -286.97099170  energy(sigma->0) =     -287.03870128


--------------------------------------------------------------------------------------------------------




--------------------------------------- Iteration      1(  11)  ---------------------------------------


    POTLOK:  cpu time    0.3973: real time    0.2191
    SETDIJ:  cpu time    0.0253: real time    0.0154
    EDDIAG:  cpu time   15.3967: real time    7.6995
  RMM-DIIS:  cpu time   36.1768: real time   18.9093
    ORTHCH:  cpu time    3.9423: real time    1.9786
       DOS:  cpu time    0.0061: real time    0.0030
    CHARGE:  cpu time    2.1849: real time    1.8483
    MIXING:  cpu time    0.0050: real time    0.0025
    --------------------------------------------
      LOOP:  cpu time   58.1343: real time   30.6757

 eigenvalue-minimisations  : 18478
 total energy-change (2. order) :-0.1912165E+00  (-0.4176680E+00)
 number of electron     651.9999492 magnetization      54.2911886
 augmentation part      271.8807496 magnetization      38.3787595

 DIPCOR: dipole corrections for dipol
 direction  3 min pos     1,
 dipolmoment           0.000000      0.000000     -0.165249 electrons x Angstroem
 Tr[quadrupol]    -13595.227229

 energy correction for charged system         0.000000 eV
 dipol+quadrupol energy correction           -0.000683 eV
 added-field ion interaction          0.556102 eV  (added to PSCEN)


 Broyden mixing:
  rms(total) = 0.17022E+01    rms(broyden)= 0.17020E+01
  rms(prec ) = 0.18262E+01
  weight for this iteration     100.00

 eigenvalues of (default mixing * dielectric matrix)
  average eigenvalue GAMMA=   0.6358
  2.1216  0.7070  0.3893  0.3191  0.1669  0.1107

 Free energy of the ion-electron system (eV)
  ---------------------------------------------------
  alpha Z        PSCENC =       760.71886761
  Ewald energy   TEWEN  =    383085.84327511
  -Hartree energ DENC   =   -436287.08689205
  -exchange      EXHF   =         0.00000000
  -V(xc)+E(xc)   XCENC  =     -1815.62254866
  PAW double counting   =     61541.78836611   -57711.05565554
  entropy T*S    EENTRO =        -0.06315926
  eigenvalues    EBANDS =     -2394.61198204
  atomic energy  EATOM  =     52532.82595619
  Solvation  Ediel_sol  =         0.00000000
  ---------------------------------------------------
  free energy    TOTEN  =      -287.26377253 eV

  energy without entropy =     -287.20061327  energy(sigma->0) =     -287.24271945


--------------------------------------------------------------------------------------------------------




--------------------------------------- Iteration      1(  12)  ---------------------------------------


    POTLOK:  cpu time    0.4005: real time    0.2273
    SETDIJ:  cpu time    0.0257: real time    0.0157
    EDDIAG:  cpu time   15.2716: real time    7.6372
  RMM-DIIS:  cpu time   36.2365: real time   18.9009
    ORTHCH:  cpu time    4.0513: real time    2.0329
       DOS:  cpu time    0.0056: real time    0.0028
    CHARGE:  cpu time    2.2101: real time    1.8797
    MIXING:  cpu time    0.0057: real time    0.0028
    --------------------------------------------
      LOOP:  cpu time   58.2071: real time   30.6994

 eigenvalue-minimisations  : 18477
 total energy-change (2. order) : 0.2698980E-01  (-0.1516446E+00)
 number of electron     651.9999493 magnetization      53.4188217
 augmentation part      270.9736568 magnetization      37.2890686

 DIPCOR: dipole corrections for dipol
 direction  3 min pos     1,
 dipolmoment           0.000000      0.000000     -0.168991 electrons x Angstroem
 Tr[quadrupol]    -13597.305379

 energy correction for charged system         0.000000 eV
 dipol+quadrupol energy correction           -0.000714 eV
 added-field ion interaction          0.568695 eV  (added to PSCEN)


 Broyden mixing:
  rms(total) = 0.11473E+01    rms(broyden)= 0.11472E+01
  rms(prec ) = 0.12179E+01
  weight for this iteration     100.00

 eigenvalues of (default mixing * dielectric matrix)
  average eigenvalue GAMMA=   0.6101
  2.0943  0.6457  0.5126  0.5126  0.2268  0.1667  0.1121

 Free energy of the ion-electron system (eV)
  ---------------------------------------------------
  alpha Z        PSCENC =       760.73142887
  Ewald energy   TEWEN  =    383085.84327511
  -Hartree energ DENC   =   -436390.44240761
  -exchange      EXHF   =         0.00000000
  -V(xc)+E(xc)   XCENC  =     -1815.71694069
  PAW double counting   =     61757.27954723   -57925.76676135
  entropy T*S    EENTRO =        -0.02250770
  eigenvalues    EBANDS =     -2291.96837277
  atomic energy  EATOM  =     52532.82595619
  Solvation  Ediel_sol  =         0.00000000
  ---------------------------------------------------
  free energy    TOTEN  =      -287.23678273 eV

  energy without entropy =     -287.21427503  energy(sigma->0) =     -287.22928017


--------------------------------------------------------------------------------------------------------




--------------------------------------- Iteration      1(  13)  ---------------------------------------


    POTLOK:  cpu time    0.3956: real time    0.2165
    SETDIJ:  cpu time    0.0251: real time    0.0154
    EDDIAG:  cpu time   15.3520: real time    7.6769
  RMM-DIIS:  cpu time   36.3960: real time   18.9768
    ORTHCH:  cpu time    3.9357: real time    1.9752
       DOS:  cpu time    0.0056: real time    0.0028
    CHARGE:  cpu time    2.2194: real time    1.8834
    MIXING:  cpu time    0.0058: real time    0.0029
    --------------------------------------------
      LOOP:  cpu time   58.3352: real time   30.7499

 eigenvalue-minimisations  : 18481
 total energy-change (2. order) :-0.1572109E+01  (-0.9111852E-01)
 number of electron     651.9999494 magnetization      51.3581149
 augmentation part      270.7991842 magnetization      35.3927862

 DIPCOR: dipole corrections for dipol
 direction  3 min pos     1,
 dipolmoment           0.000000      0.000000     -0.163955 electrons x Angstroem
 Tr[quadrupol]    -13597.900895

 energy correction for charged system         0.000000 eV
 dipol+quadrupol energy correction           -0.000672 eV
 added-field ion interaction          0.551747 eV  (added to PSCEN)


 Broyden mixing:
  rms(total) = 0.10335E+01    rms(broyden)= 0.10335E+01
  rms(prec ) = 0.11102E+01
  weight for this iteration     100.00

 eigenvalues of (default mixing * dielectric matrix)
  average eigenvalue GAMMA=   0.6511
  2.0074  0.9360  0.9360  0.5631  0.2918  0.1117  0.1741  0.1891

 Free energy of the ion-electron system (eV)
  ---------------------------------------------------
  alpha Z        PSCENC =       760.71452278
  Ewald energy   TEWEN  =    383085.84327511
  -Hartree energ DENC   =   -436418.93116385
  -exchange      EXHF   =         0.00000000
  -V(xc)+E(xc)   XCENC  =     -1816.60308252
  PAW double counting   =     61771.49692921   -57938.62435955
  entropy T*S    EENTRO =         0.00895780
  eigenvalues    EBANDS =     -2265.53992648
  atomic energy  EATOM  =     52532.82595619
  Solvation  Ediel_sol  =         0.00000000
  ---------------------------------------------------
  free energy    TOTEN  =      -288.80889132 eV

  energy without entropy =     -288.81784912  energy(sigma->0) =     -288.81187725


--------------------------------------------------------------------------------------------------------




--------------------------------------- Iteration      1(  14)  ---------------------------------------


    POTLOK:  cpu time    0.3836: real time    0.2318
    SETDIJ:  cpu time    0.0256: real time    0.0157
    EDDIAG:  cpu time   15.3390: real time    7.6708
  RMM-DIIS:  cpu time   36.0326: real time   18.6386
    ORTHCH:  cpu time    4.0372: real time    2.0259
       DOS:  cpu time    0.0058: real time    0.0029
    CHARGE:  cpu time    2.4682: real time    2.1330
    MIXING:  cpu time    0.0060: real time    0.0030
    --------------------------------------------
      LOOP:  cpu time   58.2980: real time   30.7217

 eigenvalue-minimisations  : 18471
 total energy-change (2. order) :-0.4626859E+01  (-0.1183646E+00)
 number of electron     651.9999495 magnetization      50.0768200
 augmentation part      270.6089045 magnetization      34.9743261

 DIPCOR: dipole corrections for dipol
 direction  3 min pos     1,
 dipolmoment           0.000000      0.000000     -0.145476 electrons x Angstroem
 Tr[quadrupol]    -13599.190862

 energy correction for charged system         0.000000 eV
 dipol+quadrupol energy correction           -0.000529 eV
 added-field ion interaction          0.489561 eV  (added to PSCEN)


 Broyden mixing:
  rms(total) = 0.12601E+01    rms(broyden)= 0.12600E+01
  rms(prec ) = 0.13681E+01
  weight for this iteration     100.00

 eigenvalues of (default mixing * dielectric matrix)
  average eigenvalue GAMMA=   0.6382
  2.0592  1.0266  1.0266  0.6401  0.2659  0.2659  0.1118  0.1646  0.1833

 Free energy of the ion-electron system (eV)
  ---------------------------------------------------
  alpha Z        PSCENC =       760.65247962
  Ewald energy   TEWEN  =    383085.84327511
[...]
   -.173E+01 0.345E+01 0.933E+03   0.175E+01 -.342E+01 -.933E+03   -.128E-01 0.135E-01 -.868E-01   -.118E-01 -.466E-01 0.557E-02
   -.429E+01 0.485E+01 0.948E+03   0.433E+01 -.486E+01 -.949E+03   -.232E-01 0.404E-01 0.341E-01   -.125E-01 -.320E-01 -.418E-02
   -.523E+01 -.547E+01 0.945E+03   0.522E+01 0.544E+01 -.945E+03   0.178E-01 -.240E-01 -.514E-01   -.875E-02 0.508E-01 -.105E-02
   -.120E+01 -.230E+01 0.936E+03   0.126E+01 0.234E+01 -.936E+03   -.513E-01 -.722E-01 0.136E-02   -.755E-02 0.267E-01 0.734E-04
   0.217E+02 0.236E+02 -.835E+03   -.215E+02 -.232E+02 0.836E+03   -.291E+00 -.356E+00 -.363E+00   0.217E-01 -.355E-01 -.121E-03
   0.206E+02 0.105E+00 -.796E+03   -.206E+02 -.794E-01 0.796E+03   0.356E-01 -.370E-01 0.186E+00   0.235E-01 0.128E-01 0.228E-01
   0.223E+02 -.233E+02 -.836E+03   -.221E+02 0.229E+02 0.836E+03   -.242E+00 0.380E+00 -.348E+00   0.156E-01 0.382E-01 0.116E-01
   0.115E+02 -.283E+00 -.831E+03   -.115E+02 0.277E+00 0.831E+03   0.114E-02 0.188E-01 0.762E-01   0.152E-01 -.994E-02 -.123E-01
   -.956E-01 0.232E+02 -.810E+03   0.999E-01 -.232E+02 0.810E+03   0.139E-02 0.816E-01 0.224E+00   -.497E-02 -.343E-01 0.849E-02
   -.403E-01 0.305E-01 -.762E+03   0.453E-01 -.129E+00 0.761E+03   -.164E-02 0.996E-01 0.114E+01   -.411E-02 0.299E-02 0.282E-01
   -.457E-01 -.222E+02 -.805E+03   0.489E-01 0.224E+02 0.805E+03   -.128E-02 -.163E+00 0.376E+00   -.369E-02 0.392E-01 0.707E-02
   -.174E-01 -.864E+00 -.814E+03   0.158E-01 0.878E+00 0.814E+03   -.148E-02 -.422E-02 0.305E-01   0.130E-02 -.938E-02 -.153E-01
   -.217E+02 0.234E+02 -.835E+03   0.215E+02 -.230E+02 0.835E+03   0.289E+00 -.352E+00 -.355E+00   -.244E-01 -.431E-01 0.128E-02
   -.206E+02 0.541E-01 -.796E+03   0.206E+02 -.289E-01 0.796E+03   -.350E-01 -.374E-01 0.185E+00   -.211E-01 0.117E-01 0.223E-01
   -.224E+02 -.232E+02 -.837E+03   0.221E+02 0.228E+02 0.837E+03   0.242E+00 0.378E+00 -.352E+00   -.159E-01 0.427E-01 0.604E-02
   -.115E+02 -.186E+00 -.831E+03   0.115E+02 0.186E+00 0.831E+03   -.367E-02 0.162E-01 0.732E-01   -.140E-01 -.170E-01 -.189E-01
   0.130E+00 0.126E+02 -.829E+03   -.127E+00 -.126E+02 0.829E+03   -.210E-02 0.362E-01 0.672E-01   -.327E-02 -.455E-01 -.627E-02
   0.306E-01 -.599E+00 -.813E+03   -.355E-01 0.607E+00 0.813E+03   0.114E-02 -.244E-01 0.851E-03   0.487E-02 0.178E-01 0.147E-01
   0.138E+00 -.122E+02 -.833E+03   -.136E+00 0.122E+02 0.833E+03   -.163E-02 -.401E-02 0.374E-01   -.290E-02 0.471E-01 -.424E-03
   0.595E-01 -.512E-01 -.838E+03   -.551E-01 0.593E-01 0.838E+03   -.845E-03 0.571E-02 0.679E-01   -.504E-02 -.143E-01 -.207E-01
   0.139E+02 0.145E+02 -.259E+04   -.140E+02 -.145E+02 0.258E+04   0.778E-01 0.567E-01 0.322E+01   0.808E-02 -.194E-01 -.174E-01
   0.383E+02 0.210E+02 -.257E+04   -.383E+02 -.210E+02 0.257E+04   0.160E-02 0.602E-02 0.321E+01   0.247E-01 -.259E-02 0.180E-01
   0.424E+02 -.208E+02 -.257E+04   -.423E+02 0.208E+02 0.257E+04   -.140E+00 -.201E-01 0.324E+01   0.120E-01 0.269E-01 0.110E-01
   0.145E+02 -.150E+02 -.259E+04   -.146E+02 0.150E+02 0.259E+04   0.682E-01 -.384E-01 0.324E+01   0.120E-01 0.749E-02 -.146E-01
   0.208E+02 0.386E+02 -.257E+04   -.209E+02 -.387E+02 0.257E+04   0.659E-02 0.115E+00 0.325E+01   0.421E-02 -.572E-02 -.191E-01
   0.126E+03 0.109E+03 -.246E+04   -.127E+03 -.110E+03 0.245E+04   0.967E+00 0.733E+00 0.289E+01   0.127E-01 -.518E-02 0.151E-01
   0.147E+03 -.110E+03 -.245E+04   -.146E+03 0.110E+03 0.245E+04   -.563E+00 0.457E-01 0.654E+00   0.380E-02 0.132E-01 0.282E-02
   0.229E+02 -.437E+02 -.257E+04   -.229E+02 0.438E+02 0.257E+04   0.243E-01 -.685E-01 0.316E+01   0.945E-02 0.129E-01 -.798E-02
   -.210E+02 0.384E+02 -.257E+04   0.210E+02 -.385E+02 0.257E+04   -.937E-02 0.116E+00 0.325E+01   -.139E-01 -.207E-01 -.195E-01
   -.127E+03 0.109E+03 -.246E+04   0.127E+03 -.110E+03 0.245E+04   -.969E+00 0.726E+00 0.289E+01   -.166E-01 -.972E-02 0.125E-01
   -.147E+03 -.110E+03 -.245E+04   0.146E+03 0.110E+03 0.245E+04   0.564E+00 0.458E-01 0.661E+00   -.917E-02 0.163E-01 0.440E-02
   -.229E+02 -.435E+02 -.257E+04   0.230E+02 0.436E+02 0.257E+04   -.247E-01 -.691E-01 0.316E+01   -.987E-02 0.359E-02 -.231E-01
   -.138E+02 0.144E+02 -.259E+04   0.138E+02 -.144E+02 0.258E+04   -.805E-01 0.556E-01 0.322E+01   -.162E-01 -.196E-01 -.192E-01
   -.381E+02 0.211E+02 -.257E+04   0.382E+02 -.210E+02 0.257E+04   -.216E-02 0.366E-02 0.320E+01   -.109E-01 -.836E-02 0.231E-01
   -.423E+02 -.208E+02 -.257E+04   0.421E+02 0.208E+02 0.257E+04   0.142E+00 -.189E-01 0.324E+01   -.866E-02 0.261E-01 0.112E-01
   -.144E+02 -.149E+02 -.259E+04   0.145E+02 0.149E+02 0.258E+04   -.684E-01 -.397E-01 0.324E+01   -.890E-02 0.975E-02 0.252E-02
   0.504E-01 -.149E+03 -.157E+04   -.102E-01 0.162E+03 0.156E+04   -.378E-01 -.131E+02 0.120E+02   0.832E-03 -.239E-02 0.336E-02
   -.623E-01 0.182E+03 -.196E+04   0.866E-01 -.216E+03 0.198E+04   -.196E-01 0.349E+02 -.182E+02   -.305E-02 0.390E-02 -.192E-02
   0.190E+00 -.428E+02 -.377E+03   -.205E+00 0.457E+02 0.383E+03   0.174E-01 -.290E+01 -.657E+01   -.103E-03 0.762E-04 -.532E-03
 -----------------------------------------------------------------------------------------------
   0.804E-01 -.206E+02 0.187E+02   -.204E-12 0.121E-12 -.302E-10   -.386E-01 0.205E+02 -.189E+02   -.396E-01 0.303E-01 0.217E+00
 
 
 POSITION                                       TOTAL-FORCE (eV/Angst)
 -----------------------------------------------------------------------------------
      1.37275      1.37275     12.08797         0.009260     -0.004150      0.008310
      1.37275      4.11824     12.08797        -0.013475      0.001481      0.003646
      1.37275      6.86373     12.08797         0.005480     -0.001246      0.011539
      1.37275      9.60922     12.08797        -0.000229      0.005138      0.008420
      4.11824      1.37275     12.08797         0.001147     -0.009145      0.022989
      4.11824      4.11824     12.08797         0.000366     -0.011623     -0.024575
      4.11824      6.86373     12.08797         0.000481      0.008353      0.019208
      4.11824      9.60922     12.08797         0.001599     -0.010559      0.024018
      6.86373      1.37275     12.08797        -0.007402     -0.002065      0.008429
      6.86373      4.11824     12.08797         0.012447      0.002582      0.003660
      6.86373      6.86373     12.08797        -0.005085      0.000258      0.011463
      6.86373      9.60922     12.08797         0.002735      0.005177      0.008247
      9.60922      1.37275     12.08797         0.001467     -0.039925     -0.010494
      9.60922      4.11824     12.08797         0.000908      0.011264      0.006425
      9.60922      6.86373     12.08797         0.000846      0.014533     -0.004703
      9.60922      9.60922     12.08797         0.001150      0.029456     -0.064580
      0.00234      0.00304     14.04775         0.000460     -0.000491     -0.001975
      0.00259      2.74125     14.03739        -0.001083      0.001782     -0.003382
      0.00431      5.49661     14.04220        -0.001296      0.000586     -0.002637
     -0.00006      8.23629     14.04146        -0.001859     -0.001245     -0.001646
      2.74312      0.00041     14.04355        -0.000955      0.000665     -0.003044
      2.74650      2.74384     14.04213         0.000910      0.000639      0.001442
      2.74800      5.48866     14.04365         0.001077      0.000297     -0.001541
      2.74182      8.23133     14.04209         0.000421     -0.001459      0.002331
      5.49510      0.00088     14.04332        -0.001537     -0.000218     -0.002445
      5.49028      2.74437     14.04249        -0.000369      0.000453     -0.002132
      5.48841      5.48928     14.04352         0.000168     -0.001061     -0.000896
      5.49569      8.23174     14.04244         0.000127     -0.000895     -0.000048
      8.23568      0.00337     14.04767        -0.000127     -0.000363     -0.001172
      8.23447      2.74201     14.03704        -0.000796     -0.001252      0.000224
      8.23227      5.49707     14.04204        -0.000637      0.001623     -0.000183
      8.23749      8.23651     14.04149         0.000804     -0.000731      0.000913
      1.39017      1.38769     16.01533        -0.000624     -0.001553     -0.003575
      1.36179      4.11728     15.98077         0.002367      0.002071     -0.000493
      1.38970      6.84470     16.01652         0.001409      0.001606      0.001689
      1.37164      9.60512     15.98759        -0.000096      0.002488      0.001270
      4.11923      1.36954     15.99875         0.000586     -0.000126      0.001039
      4.11830      4.11038     15.98561        -0.000668      0.003136      0.000283
      4.11888      6.86102     15.99524        -0.001693     -0.000812      0.000919
      4.11982      9.60463     15.97785        -0.002022      0.000506      0.000629
      6.84837      1.38880     16.01464        -0.000458     -0.000066      0.000794
      6.87412      4.11877     15.98082        -0.001122     -0.000060      0.000580
      6.84691      6.84577     16.01729         0.000231      0.000629     -0.001279
      6.86756      9.60661     15.98788        -0.001713     -0.001353     -0.001491
      9.61047      1.37260     15.98541        -0.002377      0.001712     -0.002881
      9.60893      4.11952     15.97619         0.001229      0.001028     -0.002313
      9.60977      6.86424     15.98947        -0.002182      0.000639     -0.001056
      9.61086      9.60725     15.98703        -0.001586     -0.000764     -0.002477
     10.97962     10.97750     17.94486        -0.001800      0.001831     -0.004417
     10.96007      2.74856     17.94681        -0.000632      0.002609     -0.000725
     10.96958      5.48372     17.94981         0.000376      0.001242     -0.000708
     10.97689      8.23907     17.94810         0.001179      0.001557     -0.000635
      2.75109     10.96096     17.94386        -0.002757      0.001980     -0.002567
      2.68615      2.71625     17.99703        -0.000194      0.001325      0.000939
      2.69806      5.50629     18.01149         0.000742     -0.001305      0.001170
      2.74902      8.24436     17.94627        -0.000149      0.001812      0.002522
      5.49035     10.96315     17.94418        -0.002151      0.000247     -0.003146
      5.55043      2.71888     17.99753         0.002564     -0.003471     -0.001170
      5.53707      5.50778     18.01386        -0.001044     -0.002618     -0.000545
      5.48925      8.24658     17.94734        -0.000180     -0.001993     -0.000686
      8.24379     10.97872     17.94444        -0.003089      0.001444     -0.003294
      8.25851      2.74977     17.94637         0.001805      0.000678      0.000387
      8.24812      5.48476     17.94967         0.000521      0.001119      0.000593
      8.24343      8.24033     17.94667        -0.000294      0.000327      0.005749
      4.11609      4.83451     19.31624         0.003075      0.005458     -0.012016
      4.11677      3.47163     19.46129         0.001553     -0.019451     -0.000729
      4.11363      5.23885     20.26614         0.002194      0.000270      0.011826
 -----------------------------------------------------------------------------------
    total drift:                                0.002112     -0.009172      0.004375


--------------------------------------------------------------------------------------------------------



  FREE ENERGIE OF THE ION-ELECTRON SYSTEM (eV)
  ---------------------------------------------------
  free  energy   TOTEN  =      -354.47405126 eV

  energy  without entropy=     -354.33245724  energy(sigma->0) =     -354.42685326
 
 d Force = 0.4094487E-04[ 0.335E-04, 0.484E-04]  d Energy = 0.3888385E-04 0.206E-05
 d Force =-0.2924921E+01[-0.292E+01,-0.293E+01]  d Ewald  =-0.2924920E+01-0.128E-05


--------------------------------------------------------------------------------------------------------


    POTLOK:  cpu time    0.1975: real time    0.1874


--------------------------------------------------------------------------------------------------------


 Conjugate gradient step on ions:
 trial-energy change:   -0.000039  1 .order   -0.000041   -0.000048   -0.000034
  (g-gl).g = 0.114E-03      g.g   = 0.941E-04  gl.gl    = 0.186E-03
 g(Force)  = 0.941E-04   g(Stress)= 0.000E+00 ortho     =-0.857E-05
 gamma     =   0.61652
 trial     =   0.54454
 opt step  =   1.77150  (harmonic =   1.77150) maximal distance =0.00192145
 next E    =  -354.474091   (d E  =  -0.00008)


--------------------------------------------------------------------------------------------------------


  
 reached required accuracy - stopping structural energy minimisation
     LOOP+:  cpu time  460.8078: real time  238.9220
    4ORBIT:  cpu time    0.0000: real time    0.0000
 


 total charge     
 
# of ion       s       p       d       tot
------------------------------------------
    1        0.445   0.308   8.521   9.275
    2        0.445   0.308   8.523   9.275
    3        0.445   0.308   8.521   9.275
    4        0.445   0.307   8.520   9.272
    5        0.445   0.307   8.522   9.274
    6        0.445   0.308   8.522   9.276
    7        0.445   0.307   8.522   9.275
    8        0.444   0.306   8.522   9.272
    9        0.445   0.308   8.521   9.275
   10        0.445   0.308   8.523   9.275
   11        0.445   0.308   8.521   9.274
   12        0.445   0.307   8.520   9.273
   13        0.445   0.308   8.521   9.274
   14        0.445   0.306   8.524   9.275
   15        0.447   0.307   8.521   9.274
   16        0.440   0.307   8.528   9.274
   17        0.486   0.477   8.462   9.425
   18        0.486   0.479   8.462   9.427
   19        0.486   0.479   8.459   9.424
   20        0.485   0.476   8.464   9.426
   21        0.485   0.478   8.459   9.421
   22        0.487   0.480   8.458   9.425
   23        0.487   0.481   8.458   9.425
   24        0.485   0.478   8.459   9.422
   25        0.485   0.478   8.459   9.421
   26        0.487   0.480   8.458   9.425
   27        0.487   0.481   8.458   9.426
   28        0.485   0.478   8.459   9.422
   29        0.486   0.477   8.462   9.425
   30        0.486   0.479   8.462   9.427
   31        0.486   0.479   8.459   9.424
   32        0.485   0.476   8.464   9.426
   33        0.490   0.481   8.453   9.425
   34        0.487   0.474   8.472   9.433
   35        0.491   0.478   8.463   9.431
   36        0.485   0.478   8.458   9.421
   37        0.483   0.471   8.466   9.420
   38        0.469   0.445   8.484   9.398
   39        0.481   0.470   8.471   9.421
   40        0.488   0.480   8.462   9.429
   41        0.490   0.481   8.453   9.425
   42        0.487   0.474   8.472   9.433
   43        0.491   0.478   8.463   9.431
   44        0.485   0.478   8.458   9.421
   45        0.486   0.479   8.457   9.422
   46        0.487   0.482   8.464   9.433
   47        0.485   0.477   8.458   9.420
   48        0.490   0.482   8.455   9.427
   49        0.444   0.308   8.523   9.275
   50        0.452   0.317   8.522   9.292
   51        0.451   0.316   8.524   9.290
   52        0.445   0.308   8.522   9.274
   53        0.449   0.312   8.525   9.286
   54        0.429   0.362   8.497   9.288
   55        0.476   0.435   8.489   9.400
   56        0.450   0.314   8.525   9.289
   57        0.449   0.312   8.525   9.286
   58        0.429   0.362   8.497   9.287
   59        0.475   0.434   8.489   9.398
   60        0.450   0.313   8.525   9.288
   61        0.444   0.308   8.523   9.275
   62        0.453   0.318   8.522   9.292
   63        0.451   0.316   8.524   9.291
   64        0.445   0.308   8.522   9.275
   65        1.242   2.457   0.000   3.699
   66        1.610   3.365   0.000   4.975
   67        0.628   0.074   0.000   0.702
--------------------------------------------------
tot         33.336  31.420 543.375 608.131
 


 magnetization (x)
 
# of ion       s       p       d       tot
------------------------------------------
    1       -0.001  -0.003   0.210   0.206
    2       -0.001  -0.003   0.205   0.201
    3       -0.001  -0.003   0.208   0.204
    4       -0.000  -0.003   0.209   0.206
    5       -0.000  -0.003   0.209   0.205
    6        0.000  -0.003   0.206   0.203
    7       -0.001  -0.003   0.210   0.207
    8       -0.001  -0.004   0.195   0.191
    9       -0.001  -0.003   0.210   0.206
   10       -0.001  -0.003   0.205   0.201
   11       -0.001  -0.003   0.208   0.204
   12       -0.000  -0.003   0.209   0.206
   13       -0.000  -0.003   0.217   0.214
   14       -0.001  -0.004   0.196   0.192
   15       -0.000  -0.003   0.215   0.212
   16        0.002  -0.003   0.213   0.212
   17       -0.002  -0.006   0.290   0.283
   18       -0.002  -0.006   0.301   0.293
   19       -0.002  -0.006   0.301   0.293
   20       -0.002  -0.006   0.291   0.283
   21       -0.002  -0.006   0.299   0.291
   22       -0.002  -0.006   0.298   0.290
   23       -0.002  -0.006   0.299   0.292
   24       -0.002  -0.006   0.294   0.287
   25       -0.002  -0.006   0.299   0.291
   26       -0.002  -0.006   0.298   0.290
   27       -0.002  -0.006   0.299   0.292
   28       -0.002  -0.006   0.294   0.287
   29       -0.002  -0.006   0.290   0.283
   30       -0.002  -0.006   0.301   0.293
   31       -0.002  -0.006   0.301   0.294
   32       -0.002  -0.006   0.291   0.283
   33       -0.002  -0.006   0.252   0.245
   34       -0.001  -0.005   0.283   0.276
   35       -0.002  -0.006   0.239   0.231
   36       -0.002  -0.005   0.294   0.287
   37       -0.001  -0.005   0.287   0.281
   38       -0.001  -0.005   0.292   0.287
   39       -0.002  -0.005   0.272   0.266
   40       -0.002  -0.006   0.283   0.276
   41       -0.002  -0.006   0.253   0.245
   42       -0.001  -0.005   0.283   0.276
   43       -0.002  -0.006   0.239   0.232
   44       -0.002  -0.005   0.294   0.287
   45       -0.002  -0.006   0.293   0.286
   46       -0.002  -0.005   0.290   0.282
   47       -0.002  -0.005   0.288   0.281
   48       -0.001  -0.006   0.308   0.302
   49       -0.001  -0.003   0.191   0.187
   50       -0.000  -0.003   0.187   0.183
   51       -0.000  -0.004   0.173   0.169
   52       -0.001  -0.003   0.192   0.188
   53       -0.000  -0.003   0.190   0.187
   54       -0.002  -0.003   0.126   0.121
   55       -0.002  -0.004   0.064   0.058
   56       -0.000  -0.003   0.184   0.180
   57       -0.000  -0.003   0.190   0.187
   58       -0.002  -0.003   0.126   0.121
   59       -0.002  -0.004   0.064   0.058
   60       -0.000  -0.003   0.184   0.180
   61       -0.001  -0.003   0.191   0.187
   62       -0.000  -0.003   0.187   0.184
   63       -0.000  -0.004   0.173   0.169
   64       -0.001  -0.003   0.192   0.189
   65       -0.000  -0.009   0.000  -0.009
   66        0.000   0.001   0.000   0.002
   67        0.001  -0.000   0.000   0.000
--------------------------------------------------
tot         -0.071  -0.289  15.137  14.777
 

 total amount of memory used by VASP MPI-rank0   227335. kBytes
=======================================================================

   base      :      30000. kBytes
   nonlr-proj:      50763. kBytes
   fftplans  :       5987. kBytes
   grid      :      86893. kBytes
   one-center:       2083. kBytes
   wavefun   :      51609. kBytes
 
  
  
 General timing and accounting informations for this job:
 ========================================================
  
                  Total CPU time used (sec):     7938.939
                            User time (sec):     7460.365
                          System time (sec):      478.574
                         Elapsed time (sec):     4176.093
  
                   Maximum memory used (kb):      662392.
                   Average memory used (kb):           0.
  
                          Minor page faults:      7923690
                          Major page faults:            6
                 Voluntary context switches:        35665
