 vasp.5.4.4.18Apr17-6-g9f103f2a35 (build Nov 10 2017 12:53:03) complex          
  
 executed on             LinuxIFC date 2022.01.21  22:53:33
 running on   48 total cores
 distrk:  each k-point on   48 cores,    1 groups
 distr:  one band on NCORES_PER_BAND=   8 cores,    6 groups


--------------------------------------------------------------------------------------------------------


 INCAR:
 POTCAR:    PAW_PBE Pd 04Jan2005                  
 POTCAR:    PAW_PBE N 08Apr2002                   
 POTCAR:    PAW_PBE O 08Apr2002                   
 POTCAR:    PAW_PBE H 15Jun2001                   
 POTCAR:    PAW_PBE Pd 04Jan2005                  
   VRHFIN =Pd : s1 d9                                                           
   LEXCH  = PE                                                                  
   EATOM  =   809.7530 eV,   59.5152 Ry                                         
                                                                                
   TITEL  = PAW_PBE Pd 04Jan2005                                                
   LULTRA =        F    use ultrasoft PP ?                                      
   IUNSCR =        1    unscreen: 0-lin 1-nonlin 2-no                           
   RPACOR =    2.000    partial core radius                                     
   POMASS =  106.420; ZVAL   =   10.000    mass and valenz                      
   RCORE  =    2.600    outmost cutoff radius                                   
   RWIGS  =    2.710; RWIGS  =    1.434    wigner-seitz radius (au A)           
   ENMAX  =  250.925; ENMIN  =  188.194 eV                                      
   ICORE  =        3    local potential                                         
   LCOR   =        T    correct aug charges                                     
   LPAW   =        T    paw PP                                                  
   EAUG   =  416.230                                                            
   DEXC   =    0.000                                                            
   RMAX   =    2.653    core radius for proj-oper                               
   RAUG   =    1.300    factor for augmentation sphere                          
   RDEP   =    2.734    radius for radial grids                                 
   RDEPT  =    2.103    core radius for aug-charge                              
                                                                                
   Atomic configuration                                                         
   12 entries                                                                   
     n  l   j            E        occ.                                          
     1  0  0.50    -24164.6631   2.0000                                         
     2  0  0.50     -3530.9218   2.0000                                         
     2  1  1.50     -3165.6822   6.0000                                         
     3  0  0.50      -639.4577   2.0000                                         
     3  1  1.50      -519.4532   6.0000                                         
     3  2  2.50      -328.9757  10.0000                                         
     4  0  0.50       -88.7014   2.0000                                         
     4  1  1.50       -54.4540   6.0000                                         
     4  2  2.50        -6.6878   9.0000                                         
     5  0  0.50        -4.3543   1.0000                                         
     5  1  0.50        -1.3606   0.0000                                         
     4  3  2.50        -1.3606   0.0000                                         
   Description                                                                  
     l       E           TYP  RCUT    TYP  RCUT                                 
     2     -6.6878251     23  2.400                                             
     2     -8.0484077     23  2.400                                             
     0     -4.3542939     23  2.400                                             
     0      4.3406793     23  2.400                                             
     1     -4.0817478     23  2.600                                             
     1     15.8380318     23  2.600                                             
     3     -4.0817478     23  2.400                                             
  local pseudopotential read in
  partial core-charges read in
  partial kinetic energy density read in
  atomic valenz-charges read in
  non local Contribution for L=           2  read in
    real space projection operators read in
  non local Contribution for L=           2  read in
    real space projection operators read in
  non local Contribution for L=           0  read in
    real space projection operators read in
  non local Contribution for L=           0  read in
    real space projection operators read in
  non local Contribution for L=           1  read in
    real space projection operators read in
  non local Contribution for L=           1  read in
    real space projection operators read in
    PAW grid and wavefunctions read in
 
   number of l-projection  operators is LMAX  =           6
   number of lm-projection operators is LMMAX =          18
 
 POTCAR:    PAW_PBE N 08Apr2002                   
   VRHFIN =N: s2p3                                                              
   LEXCH  = PE                                                                  
   EATOM  =   264.5486 eV,   19.4438 Ry                                         
                                                                                
   TITEL  = PAW_PBE N 08Apr2002                                                 
   LULTRA =        F    use ultrasoft PP ?                                      
   IUNSCR =        1    unscreen: 0-lin 1-nonlin 2-no                           
   RPACOR =    1.200    partial core radius                                     
   POMASS =   14.001; ZVAL   =    5.000    mass and valenz                      
   RCORE  =    1.500    outmost cutoff radius                                   
   RWIGS  =    1.400; RWIGS  =    0.741    wigner-seitz radius (au A)           
   ENMAX  =  400.000; ENMIN  =  300.000 eV                                      
   ICORE  =        2    local potential                                         
   LCOR   =        T    correct aug charges                                     
   LPAW   =        T    paw PP                                                  
   EAUG   =  627.112                                                            
   DEXC   =    0.000                                                            
   RMAX   =    1.529    core radius for proj-oper                               
   RAUG   =    1.300    factor for augmentation sphere                          
   RDEP   =    1.514    radius for radial grids                                 
   RDEPT  =    1.338    core radius for aug-charge                              
                                                                                
   Atomic configuration                                                         
    4 entries                                                                   
     n  l   j            E        occ.                                          
     1  0  0.50      -384.7179   2.0000                                         
     2  0  0.50       -18.5828   2.0000                                         
     2  1  0.50        -7.0898   3.0000                                         
     3  2  1.50        -6.8029   0.0000                                         
   Description                                                                  
     l       E           TYP  RCUT    TYP  RCUT                                 
     0    -18.5828119     23  1.200                                             
     0    -13.5018863     23  1.200                                             
     1     -7.0897853     23  1.500                                             
     1      9.5240782     23  1.500                                             
     2     -6.8029130      7  1.500                                             
  local pseudopotential read in
  partial core-charges read in
  partial kinetic energy density read in
  atomic valenz-charges read in
  non local Contribution for L=           0  read in
    real space projection operators read in
  non local Contribution for L=           0  read in
    real space projection operators read in
  non local Contribution for L=           1  read in
    real space projection operators read in
  non local Contribution for L=           1  read in
    real space projection operators read in
    PAW grid and wavefunctions read in
 
   number of l-projection  operators is LMAX  =           4
   number of lm-projection operators is LMMAX =           8
 
 POTCAR:    PAW_PBE O 08Apr2002                   
   VRHFIN =O: s2p4                                                              
   LEXCH  = PE                                                                  
   EATOM  =   432.3788 eV,   31.7789 Ry                                         
                                                                                
   TITEL  = PAW_PBE O 08Apr2002                                                 
   LULTRA =        F    use ultrasoft PP ?                                      
   IUNSCR =        1    unscreen: 0-lin 1-nonlin 2-no                           
   RPACOR =    1.200    partial core radius                                     
   POMASS =   16.000; ZVAL   =    6.000    mass and valenz                      
   RCORE  =    1.520    outmost cutoff radius                                   
   RWIGS  =    1.550; RWIGS  =    0.820    wigner-seitz radius (au A)           
   ENMAX  =  400.000; ENMIN  =  300.000 eV                                      
   ICORE  =        2    local potential                                         
   LCOR   =        T    correct aug charges                                     
   LPAW   =        T    paw PP                                                  
   EAUG   =  605.392                                                            
   DEXC   =    0.000                                                            
   RMAX   =    1.553    core radius for proj-oper                               
   RAUG   =    1.300    factor for augmentation sphere                          
   RDEP   =    1.550    radius for radial grids                                 
   RDEPT  =    1.329    core radius for aug-charge                              
                                                                                
   Atomic configuration                                                         
    4 entries                                                                   
     n  l   j            E        occ.                                          
     1  0  0.50      -514.6923   2.0000                                         
     2  0  0.50       -23.9615   2.0000                                         
     2  1  0.50        -9.0305   4.0000                                         
     3  2  1.50        -9.5241   0.0000                                         
   Description                                                                  
     l       E           TYP  RCUT    TYP  RCUT                                 
     0    -23.9615318     23  1.200                                             
     0     -9.5240782     23  1.200                                             
     1     -9.0304911     23  1.520                                             
     1      8.1634956     23  1.520                                             
     2     -9.5240782      7  1.500                                             
  local pseudopotential read in
  partial core-charges read in
  partial kinetic energy density read in
  kinetic energy density of atom read in
  atomic valenz-charges read in
  non local Contribution for L=           0  read in
    real space projection operators read in
  non local Contribution for L=           0  read in
    real space projection operators read in
  non local Contribution for L=           1  read in
    real space projection operators read in
  non local Contribution for L=           1  read in
    real space projection operators read in
    PAW grid and wavefunctions read in
 
   number of l-projection  operators is LMAX  =           4
   number of lm-projection operators is LMMAX =           8
 
 POTCAR:    PAW_PBE H 15Jun2001                   
   VRHFIN =H: ultrasoft test                                                    
   LEXCH  = PE                                                                  
   EATOM  =    12.4884 eV,    0.9179 Ry                                         
                                                                                
   TITEL  = PAW_PBE H 15Jun2001                                                 
   LULTRA =        F    use ultrasoft PP ?                                      
   IUNSCR =        0    unscreen: 0-lin 1-nonlin 2-no                           
   RPACOR =    0.000    partial core radius                                     
   POMASS =    1.000; ZVAL   =    1.000    mass and valenz                      
   RCORE  =    1.100    outmost cutoff radius                                   
   RWIGS  =    0.700; RWIGS  =    0.370    wigner-seitz radius (au A)           
   ENMAX  =  250.000; ENMIN  =  200.000 eV                                      
   RCLOC  =    0.701    cutoff for local pot                                    
   LCOR   =        T    correct aug charges                                     
   LPAW   =        T    paw PP                                                  
   EAUG   =  400.000                                                            
   RMAX   =    1.123    core radius for proj-oper                               
   RAUG   =    1.200    factor for augmentation sphere                          
   RDEP   =    1.112    radius for radial grids                                 
   RDEPT  =    0.926    core radius for aug-charge                              
                                                                                
   Atomic configuration                                                         
    2 entries                                                                   
     n  l   j            E        occ.                                          
     1  0  0.50        -6.4927   1.0000                                         
     2  1  0.50        -3.4015   0.0000                                         
   Description                                                                  
     l       E           TYP  RCUT    TYP  RCUT                                 
     0     -6.4927494     23  1.100                                             
     0      6.8029130     23  1.100                                             
     1     -4.0817478     23  1.100                                             
  local pseudopotential read in
  atomic valenz-charges read in
  non local Contribution for L=           0  read in
    real space projection operators read in
  non local Contribution for L=           0  read in
    real space projection operators read in
  non local Contribution for L=           1  read in
    real space projection operators read in
    PAW grid and wavefunctions read in
 
   number of l-projection  operators is LMAX  =           3
   number of lm-projection operators is LMMAX =           5
 
 Optimization of the real space projectors (new method)

 maximal supplied QI-value         = 14.36
 optimisation between [QCUT,QGAM] = [ 10.20, 20.39] = [ 29.12,116.47] Ry 
 Optimized for a Real-space Cutoff    1.55 Angstroem

   l    n(q)    QCUT    max X(q) W(low)/X(q) W(high)/X(q)  e(spline) 
   2      9    10.197    59.108    0.12E-03    0.40E-04    0.11E-06
   2      9    10.197    58.101    0.12E-03    0.39E-04    0.12E-06
   0      9    10.197   102.235    0.41E-04    0.86E-05    0.83E-07
   0      9    10.197    58.388    0.37E-04    0.79E-05    0.78E-07
   1      9    10.197    22.191    0.25E-03    0.13E-03    0.84E-07
   1      9    10.197    15.590    0.21E-03    0.11E-03    0.74E-07
 Optimization of the real space projectors (new method)

 maximal supplied QI-value         = 25.13
 optimisation between [QCUT,QGAM] = [ 10.05, 20.36] = [ 28.30,116.06] Ry 
 Optimized for a Real-space Cutoff    1.70 Angstroem

   l    n(q)    QCUT    max X(q) W(low)/X(q) W(high)/X(q)  e(spline) 
   0     10    10.053    79.467    0.61E-04    0.98E-04    0.61E-06
   0     10    10.053    66.151    0.60E-04    0.98E-04    0.61E-06
   1     10    10.053     8.350    0.17E-03    0.71E-03    0.45E-05
   1     10    10.053     5.531    0.18E-03    0.77E-03    0.49E-05
 Optimization of the real space projectors (new method)

 maximal supplied QI-value         = 24.76
 optimisation between [QCUT,QGAM] = [ 10.15, 20.30] = [ 28.85,115.39] Ry 
 Optimized for a Real-space Cutoff    1.51 Angstroem

   l    n(q)    QCUT    max X(q) W(low)/X(q) W(high)/X(q)  e(spline) 
   0      9    10.150    20.381    0.17E-03    0.18E-03    0.41E-06
   0      9    10.150    15.268    0.18E-03    0.20E-03    0.43E-06
   1      9    10.150     5.964    0.16E-03    0.20E-03    0.36E-06
   1      9    10.150     5.382    0.13E-03    0.16E-03    0.33E-06
 Optimization of the real space projectors (new method)

 maximal supplied QI-value         = 34.20
 optimisation between [QCUT,QGAM] = [  9.92, 20.18] = [ 27.55,114.04] Ry 
 Optimized for a Real-space Cutoff    1.34 Angstroem

   l    n(q)    QCUT    max X(q) W(low)/X(q) W(high)/X(q)  e(spline) 
   0      8     9.919    19.460    0.16E-03    0.20E-03    0.36E-06
   0      8     9.919    12.209    0.16E-03    0.20E-03    0.35E-06
   1      8     9.919     4.655    0.19E-03    0.46E-03    0.40E-06
  PAW_PBE Pd 04Jan2005                  :
 energy of atom  1       EATOM= -809.7530
 kinetic energy error for atom=    0.0091 (will be added to EATOM!!)
  PAW_PBE N 08Apr2002                   :
 energy of atom  2       EATOM= -264.5486
 kinetic energy error for atom=    0.0736 (will be added to EATOM!!)
  PAW_PBE O 08Apr2002                   :
 energy of atom  3       EATOM= -432.3788
 kinetic energy error for atom=    0.1156 (will be added to EATOM!!)
  PAW_PBE H 15Jun2001                   :
 energy of atom  4       EATOM=  -12.4884
 kinetic energy error for atom=    0.0098 (will be added to EATOM!!)
 
 
 POSCAR: Pd N O H                                
  positions in direct lattice
  velocities in cartesian coordinates
 exchange correlation table for  LEXCH =        8
   RHO(1)=    0.500       N(1)  =     2000
   RHO(2)=  100.500       N(2)  =     4000

 VTST: version 3.1, (03/28/14)

 CHAIN: initializing optimizer
 
 OPT: Using Conjugate-Gradient optimizer
 OPT: CG, Init
 OPT: CG, FDSTEP      0.005000
 OPT: CG, MAXMOVE      0.200000
 
 CHAIN: Read ICHAIN            2
 
 POSCAR: Pd N O H                                
  positions in direct lattice
  velocities in cartesian coordinates
 CHAIN: Running the Dimer method

 Dimer: -----------------
 Dimer: Input Parameters
 Dimer:   Seed      0
 Dimer: RotMax      4
 Dimer:     dR      0.005000
 Dimer:  FNMax      1.000000
 Dimer:  FNMin      0.010000
 Dimer: -----------------
 


--------------------------------------------------------------------------------------------------------


 ion  position               nearest neighbor table
   1  0.125  0.125  0.403-   4 2.75  13 2.75   5 2.75   2 2.75  18 2.75  22 2.75  17 2.75  21 2.76

   2  0.125  0.375  0.403-  14 2.75   6 2.75   1 2.75   3 2.75  18 2.75  19 2.75  22 2.76  23 2.76

   3  0.125  0.625  0.403-   4 2.75   7 2.75  15 2.75   2 2.75  20 2.75  24 2.75  19 2.76  23 2.76

   4  0.125  0.875  0.403-   1 2.75   3 2.75   8 2.75  16 2.75  17 2.75  21 2.75  20 2.76  24 2.77

   5  0.375  0.125  0.403-   8 2.75   9 2.75   1 2.75   6 2.75  25 2.75  26 2.75  22 2.76  21 2.76

   6  0.375  0.375  0.403-  10 2.75   2 2.75   5 2.75   7 2.75  23 2.76  27 2.76  26 2.76  22 2.76

   7  0.375  0.625  0.403-   8 2.75  11 2.75   3 2.75   6 2.75  28 2.75  24 2.75  23 2.76  27 2.76

   8  0.375  0.875  0.403-   5 2.75   7 2.75  12 2.75   4 2.75  25 2.75  21 2.75  28 2.76  24 2.76

   9  0.625  0.125  0.403-  12 2.75  13 2.75   5 2.75  10 2.75  30 2.75  26 2.75  29 2.75  25 2.76

  10  0.625  0.375  0.403-  14 2.75   6 2.75   9 2.75  11 2.75  30 2.75  26 2.75  31 2.76  27 2.76

  11  0.625  0.625  0.403-  12 2.75   7 2.75  15 2.75  10 2.75  32 2.75  28 2.75  31 2.76  27 2.76

  12  0.625  0.875  0.403-   9 2.75  11 2.75   8 2.75  16 2.75  25 2.75  29 2.75  32 2.76  28 2.76

  13  0.875  0.125  0.403-  16 2.74   9 2.75   1 2.75  14 2.75  30 2.75  18 2.75  17 2.75  29 2.75

  14  0.875  0.375  0.403-  10 2.75   2 2.75  13 2.75  15 2.75  30 2.75  18 2.75  31 2.76  19 2.76

  15  0.875  0.625  0.403-  16 2.75  11 2.75   3 2.75  14 2.75  20 2.75  32 2.75  31 2.76  19 2.77

  16  0.875  0.875  0.403-  13 2.74  15 2.75  12 2.75   4 2.75  29 2.75  17 2.75  20 2.76  32 2.76

  17  1.000  1.000  0.468-  29 2.74  33 2.75  21 2.75  18 2.75  16 2.75  45 2.75   4 2.75  20 2.75
                            48 2.75  13 2.75   1 2.75  36 2.75
  18  0.000  0.250  0.468-  19 2.74  22 2.74  30 2.74  17 2.75  46 2.75   1 2.75  13 2.75   2 2.75
                            14 2.75  33 2.75  45 2.75  34 2.77
  19  0.001  0.499  0.468-  18 2.74  23 2.74  20 2.74  47 2.75  46 2.75  35 2.75   2 2.75  31 2.76
                             3 2.76  14 2.76  34 2.76  15 2.77
  20  0.000  0.749  0.468-  19 2.74  24 2.74  36 2.75   3 2.75  48 2.75  17 2.75  15 2.75  32 2.75
                            47 2.75   4 2.76  16 2.76  35 2.76
  21  0.250  0.999  0.468-  37 2.74  25 2.74  17 2.75   8 2.75   4 2.75  36 2.75  33 2.75  24 2.75
                            22 2.75  40 2.76   5 2.76   1 2.76
  22  0.250  0.250  0.468-  18 2.74  23 2.74  38 2.75  33 2.75  21 2.75  37 2.75  26 2.75   1 2.75
                             2 2.76   5 2.76  34 2.76   6 2.76
  23  0.250  0.500  0.468-  24 2.74  27 2.74  19 2.74  22 2.74  39 2.75  35 2.75  34 2.76   6 2.76
                            38 2.76   2 2.76   7 2.76   3 2.76
  24  0.250  0.749  0.468-  23 2.74  36 2.74  28 2.74  40 2.74  20 2.74  21 2.75   7 2.75   3 2.75
                            35 2.75  39 2.76   8 2.76   4 2.77
  25  0.500  0.999  0.468-  37 2.74  21 2.74   8 2.75  29 2.75  12 2.75  41 2.75  26 2.75  44 2.75
                            28 2.75   5 2.75  40 2.76   9 2.76
  26  0.500  0.250  0.468-  30 2.74  27 2.74  38 2.75  41 2.75  25 2.75   9 2.75  22 2.75  37 2.75
                            10 2.75   5 2.75   6 2.76  42 2.76
  27  0.500  0.500  0.468-  28 2.74  23 2.74  26 2.74  31 2.74  39 2.75  43 2.75  42 2.75  38 2.76
                             6 2.76  10 2.76   7 2.76  11 2.76
  28  0.500  0.749  0.468-  27 2.74  44 2.74  24 2.74  32 2.74  40 2.75   7 2.75  25 2.75  11 2.75
                            43 2.76   8 2.76  39 2.76  12 2.76
  29  0.750  0.999  0.468-  17 2.74  41 2.74  25 2.75  16 2.75  48 2.75  45 2.75  32 2.75  12 2.75
                            30 2.75  44 2.75  13 2.75   9 2.75
  30  0.750  0.250  0.468-  31 2.74  26 2.74  18 2.74  13 2.75  29 2.75   9 2.75  46 2.75  14 2.75
                            41 2.75  10 2.75  45 2.75  42 2.77
  31  0.750  0.499  0.468-  30 2.74  32 2.74  27 2.74  47 2.74  46 2.75  43 2.75  10 2.76  19 2.76
                            14 2.76  42 2.76  11 2.76  15 2.76
  32  0.750  0.749  0.468-  31 2.74  28 2.74  44 2.75  48 2.75  11 2.75  29 2.75  20 2.75  15 2.75
                            47 2.75  12 2.76  16 2.76  43 2.76
  33  0.125  0.124  0.533-  54 2.74  45 2.74  17 2.75  22 2.75  37 2.75  36 2.75  21 2.75  34 2.75
                            18 2.75  50 2.76  49 2.76  53 2.76
  34  0.126  0.375  0.534-  35 2.73  38 2.74  33 2.75  51 2.75  23 2.76  46 2.76  55 2.76  22 2.76
                            54 2.76  50 2.76  19 2.76  18 2.77
  35  0.125  0.624  0.533-  34 2.73  39 2.74  36 2.75  47 2.75  19 2.75  23 2.75  52 2.75  24 2.75
                            51 2.76  20 2.76  56 2.77  55 2.81
  36  0.125  0.874  0.533-  24 2.74  40 2.74  20 2.75  35 2.75  48 2.75  33 2.75  21 2.75  17 2.75
                            53 2.76  49 2.76  56 2.76  52 2.76
  37  0.375  0.123  0.533-  21 2.74  25 2.74  38 2.74  40 2.74  54 2.75  33 2.75  41 2.75  58 2.75
                            22 2.75  26 2.75  57 2.76  53 2.76
  38  0.375  0.373  0.533-  42 2.73  34 2.74  37 2.74  39 2.75  22 2.75  26 2.75  27 2.76  23 2.76
                            58 2.77  54 2.77  59 2.81  55 2.81
  39  0.375  0.623  0.534-  35 2.74  43 2.74  38 2.75  27 2.75  23 2.75  40 2.75  24 2.76  28 2.76
                            56 2.79  60 2.79  55 2.84  59 2.84
  40  0.375  0.874  0.533-  44 2.74  37 2.74  24 2.74  36 2.74  28 2.75  39 2.75  57 2.75  21 2.76
                            53 2.76  25 2.76  56 2.77  60 2.77
  41  0.625  0.124  0.533-  45 2.74  58 2.74  29 2.74  26 2.75  44 2.75  25 2.75  37 2.75  30 2.75
                            42 2.75  62 2.76  61 2.76  57 2.76
  42  0.624  0.375  0.534-  38 2.73  43 2.74  41 2.75  63 2.75  27 2.75  62 2.76  46 2.76  26 2.76
                            59 2.76  58 2.76  31 2.76  30 2.77
  43  0.625  0.624  0.533-  42 2.74  39 2.74  44 2.75  47 2.75  27 2.75  31 2.75  64 2.75  28 2.76
                            63 2.76  32 2.76  60 2.78  59 2.82
  44  0.625  0.874  0.533-  40 2.74  28 2.74  32 2.75  48 2.75  43 2.75  41 2.75  25 2.75  29 2.75
                            61 2.76  57 2.76  64 2.76  60 2.77
  45  0.875  0.124  0.533-  46 2.74  41 2.74  33 2.74  48 2.75  29 2.75  17 2.75  62 2.75  30 2.75
                            18 2.75  50 2.75  49 2.76  61 2.76
  46  0.875  0.374  0.533-  45 2.74  47 2.75  18 2.75  19 2.75  31 2.75  30 2.75  34 2.76  42 2.76
                            63 2.76  62 2.76  51 2.76  50 2.76
  47  0.875  0.624  0.533-  31 2.74  19 2.75  48 2.75  46 2.75  43 2.75  35 2.75  32 2.75  20 2.75
                            64 2.75  52 2.75  63 2.76  51 2.76
  48  0.875  0.874  0.533-  47 2.75  44 2.75  45 2.75  32 2.75  36 2.75  29 2.75  20 2.75  17 2.75
                            61 2.75  49 2.75  64 2.76  52 2.76
  49  1.000  0.999  0.598-  50 2.74  52 2.74  61 2.74  53 2.75  48 2.75  36 2.76  33 2.76  45 2.76

  50  1.000  0.248  0.598-  62 2.74  49 2.74  54 2.75  45 2.75  51 2.75  33 2.76  34 2.76  46 2.76

  51  0.999  0.499  0.598-  55 2.72  63 2.73  52 2.75  34 2.75  50 2.75  35 2.76  46 2.76  47 2.76

  52  0.999  0.749  0.598-  64 2.73  49 2.74  56 2.74  51 2.75  47 2.75  35 2.75  48 2.76  36 2.76

  53  0.250  0.999  0.598-  54 2.71  56 2.72  49 2.75  57 2.75  40 2.76  36 2.76  37 2.76  33 2.76

  54  0.250  0.246  0.598-  53 2.71  55 2.74  33 2.74  37 2.75  58 2.75  50 2.75  34 2.76  38 2.77

  55  0.247  0.495  0.601-  65 2.04  51 2.72  54 2.74  34 2.76  59 2.81  38 2.81  35 2.81  56 2.82
                            39 2.84
  56  0.249  0.751  0.599-  67 1.97  53 2.72  52 2.74  36 2.76  60 2.77  40 2.77  35 2.77  39 2.79
                            55 2.82
  57  0.500  0.999  0.598-  58 2.71  60 2.72  61 2.75  53 2.75  40 2.75  44 2.76  37 2.76  41 2.76

  58  0.500  0.246  0.598-  57 2.71  59 2.73  41 2.74  62 2.75  54 2.75  37 2.75  42 2.76  38 2.77

  59  0.503  0.495  0.601-  65 2.04  63 2.73  58 2.73  42 2.76  55 2.81  38 2.81  43 2.82  60 2.82
                            39 2.84
  60  0.501  0.751  0.599-  67 1.96  57 2.72  64 2.74  44 2.77  56 2.77  40 2.77  43 2.78  39 2.79
                            59 2.82
  61  0.750  0.999  0.598-  64 2.74  62 2.74  49 2.74  57 2.75  48 2.75  44 2.76  41 2.76  45 2.76

  62  0.750  0.248  0.598-  50 2.74  61 2.74  58 2.75  63 2.75  45 2.75  42 2.76  41 2.76  46 2.76

  63  0.751  0.499  0.598-  59 2.73  51 2.73  64 2.75  62 2.75  42 2.75  43 2.76  46 2.76  47 2.76

  64  0.751  0.749  0.598-  52 2.73  61 2.74  60 2.74  63 2.75  47 2.75  43 2.75  48 2.76  44 2.76

  65  0.375  0.554  0.645-  66 1.23  67 1.30  55 2.04  59 2.04
  66  0.375  0.527  0.685-  65 1.23
  67  0.376  0.667  0.634-  65 1.30  60 1.96  56 1.97
 
  LATTYP: Found a simple tetragonal cell.
 ALAT       =    10.9820000000
 C/A-ratio  =     2.7317428519
  
  Lattice vectors:
  
 A1 = (  10.9820000000,   0.0000000000,   0.0000000000)
 A2 = (   0.0000000000,  10.9820000000,   0.0000000000)
 A3 = (   0.0000000000,   0.0000000000,  30.0000000000)


Analysis of symmetry for initial positions (statically):
=====================================================================
 Subroutine PRICEL returns:
 Original cell was already a primitive cell.
 

 Routine SETGRP: Setting up the symmetry group for a 
 simple tetragonal supercell.


 Subroutine GETGRP returns: Found  1 space group operations
 (whereof  1 operations were pure point group operations)
 out of a pool of 16 trial point group operations.


The static configuration has the point symmetry C_1 .


Analysis of symmetry for dynamics (positions and initial velocities):
=====================================================================
 Subroutine PRICEL returns:
 Original cell was already a primitive cell.
 

 Routine SETGRP: Setting up the symmetry group for a 
 simple tetragonal supercell.


 Subroutine GETGRP returns: Found  1 space group operations
 (whereof  1 operations were pure point group operations)
 out of a pool of 16 trial point group operations.


The dynamic configuration has the point symmetry C_1 .


Analysis of constrained symmetry for selective dynamics:
=====================================================================
 Subroutine PRICEL returns:
 Original cell was already a primitive cell.
 

 Routine SETGRP: Setting up the symmetry group for a 
 simple tetragonal supercell.


 Subroutine GETGRP returns: Found  1 space group operations
 (whereof  1 operations were pure point group operations)
 out of a pool of 16 trial point group operations.


The constrained configuration has the point symmetry C_1 .


Analysis of structural, dynamic, and magnetic symmetry:
=====================================================================
 Subroutine PRICEL returns:
 Original cell was already a primitive cell.
 

 Routine SETGRP: Setting up the symmetry group for a 
 simple tetragonal supercell.


 Subroutine GETGRP returns: Found  1 space group operations
 (whereof  1 operations were pure point group operations)
 out of a pool of 16 trial point group operations.


The magnetic configuration has the point symmetry C_1 .


 Subroutine INISYM returns: Found  1 space group operations
 (whereof  1 operations are pure point group operations),
 and found     1 'primitive' translations

 
 
 KPOINTS: K-Point Grid                            

Automatic generation of k-mesh.
Space group operators:
 irot       det(A)        alpha          n_x          n_y          n_z        tau_x        tau_y        tau_z
    1     1.000000     0.000001     1.000000     0.000000     0.000000     0.000000     0.000000     0.000000
 
 Subroutine IBZKPT returns following result:
 ===========================================
 
 Found      8 irreducible k-points:
 
 Following reciprocal coordinates:
            Coordinates               Weight
  0.125000  0.125000  0.000000      2.000000
  0.375000  0.125000  0.000000      2.000000
 -0.375000  0.125000  0.000000      2.000000
 -0.125000  0.125000  0.000000      2.000000
  0.125000  0.375000  0.000000      2.000000
  0.375000  0.375000  0.000000      2.000000
 -0.375000  0.375000  0.000000      2.000000
 -0.125000  0.375000  0.000000      2.000000
 
 Following cartesian coordinates:
            Coordinates               Weight
  0.011382  0.011382  0.000000      2.000000
  0.034147  0.011382  0.000000      2.000000
 -0.034147  0.011382  0.000000      2.000000
 -0.011382  0.011382  0.000000      2.000000
  0.011382  0.034147  0.000000      2.000000
  0.034147  0.034147  0.000000      2.000000
 -0.034147  0.034147  0.000000      2.000000
 -0.011382  0.034147  0.000000      2.000000
 


--------------------------------------------------------------------------------------------------------




 Dimension of arrays:
   k-points           NKPTS =      8   k-points in BZ     NKDIM =      8   number of bands    NBANDS=    426
   number of dos      NEDOS =   1200   number of ions     NIONS =     67
   non local maximal  LDIM  =      6   non local SUM 2l+1 LMDIM =     18
   total plane-waves  NPLWV = ******
   max r-space proj   IRMAX =   5807   max aug-charges    IRDMAX=  13820
   dimension x,y,z NGX =    72 NGY =   72 NGZ =  196
   dimension x,y,z NGXF=   144 NGYF=  144 NGZF=  392
   support grid    NGXF=   144 NGYF=  144 NGZF=  392
   ions per type =              64   1   1   1
   NGX,Y,Z   is equivalent  to a cutoff of  10.90, 10.90, 10.86 a.u.
   NGXF,Y,Z  is equivalent  to a cutoff of  21.80, 21.80, 21.72 a.u.

 SYSTEM =  Pd_111_surface                          
 POSCAR =  Pd N O H                                

 Startparameter for this run:
   NWRITE =      2    write-flag & timer
   PREC   = accura    normal or accurate (medium, high low for compatibility)
   ISTART =      0    job   : 0-new  1-cont  2-samecut
   ICHARG =      2    charge: 1-file 2-atom 10-const
   ISPIN  =      2    spin polarized calculation?
   LNONCOLLINEAR =      F non collinear calculations
   LSORBIT =      F    spin-orbit coupling
   INIWAV =      1    electr: 0-lowe 1-rand  2-diag
   LASPH  =      F    aspherical Exc in radial PAW
   METAGGA=      F    non-selfconsistent MetaGGA calc.

 Electronic Relaxation 1
   ENCUT  =  400.0 eV  29.40 Ry    5.42 a.u.  17.91 17.91 48.92*2*pi/ulx,y,z
   ENINI  =  400.0     initial cutoff
   ENAUG  =  627.1 eV  augmentation charge cutoff
   NELM   =    100;   NELMIN=  2; NELMDL=  0     # of ELM steps 
   EDIFF  = 0.1E-04   stopping-criterion for ELM
   LREAL  =      T    real-space projection
   NLSPLINE    = F    spline interpolate recip. space projectors
   LCOMPAT=      F    compatible to vasp.4.4
   GGA_COMPAT  = T    GGA compatible to vasp.4.4-vasp.4.6
   LMAXPAW     = -100 max onsite density
   LMAXMIX     =    2 max onsite mixed and CHGCAR
   VOSKOWN=      0    Vosko Wilk Nusair interpolation
   ROPT   =   -0.00025  -0.00025  -0.00025  -0.00025
 Ionic relaxation
   EDIFFG = -.5E-01   stopping-criterion for IOM
   NSW    =    500    number of steps for IOM
   NBLOCK =      1;   KBLOCK =    500    inner block; outer block 
   IBRION =      3    ionic relax: 0-MD 1-quasi-New 2-CG
   NFREE  =      0    steps in history (QN), initial steepest desc. (CG)
   ISIF   =      2    stress and relaxation
   IWAVPR =     11    prediction:  0-non 1-charg 2-wave 3-comb
   ISYM   =      2    0-nonsym 1-usesym 2-fastsym
   LCORR  =      T    Harris-Foulkes like correction to forces

   POTIM  = 0.0000    time-step for ionic-motion
   TEIN   =    0.0    initial temperature
   TEBEG  =    0.0;   TEEND  =   0.0 temperature during run
   SMASS  =  -3.00    Nose mass-parameter (am)
   estimated Nose-frequenzy (Omega)   =  0.10E-29 period in steps =  0.00 mass=  -0.276E-26a.u.
   SCALEE = 1.0000    scale energy and forces
   NPACO  =    256;   APACO  = 16.0  distance and # of slots for P.C.
   PSTRESS=    0.0 pullay stress

  Mass of Ions in am
   POMASS = 106.42 14.00 16.00  1.00
  Ionic Valenz
   ZVAL   =  10.00  5.00  6.00  1.00
  Atomic Wigner-Seitz radii
   RWIGS  =  -1.00 -1.00 -1.00 -1.00
  virtual crystal weights 
   VCA    =   1.00  1.00  1.00  1.00
   NELECT =     652.0000    total number of electrons
   NUPDOWN=      -1.0000    fix difference up-down

 DOS related values:
   EMIN   =  10.00;   EMAX   =-10.00  energy-range for DOS
   EFERMI =   0.00
   ISMEAR =     1;   SIGMA  =   0.20  broadening in eV -4-tet -1-fermi 0-gaus

 Electronic relaxation 2 (details)
   IALGO  =     68    algorithm
   LDIAG  =      T    sub-space diagonalisation (order eigenvalues)
   LSUBROT=      F    optimize rotation matrix (better conditioning)
   TURBO    =      0    0=normal 1=particle mesh
   IRESTART =      0    0=no restart 2=restart with 2 vectors
   NREBOOT  =      0    no. of reboots
   NMIN     =      0    reboot dimension
   EREF     =   0.00    reference energy to select bands
   IMIX   =      4    mixing-type and parameters
     AMIX     =   0.40;   BMIX     =  1.00
     AMIX_MAG =   1.60;   BMIX_MAG =  1.00
     AMIN     =   0.10
     WC   =   100.;   INIMIX=   1;  MIXPRE=   1;  MAXMIX= -45

 Intra band minimization:
   WEIMIN = 0.0010     energy-eigenvalue tresh-hold
   EBREAK =  0.59E-08  absolut break condition
   DEPER  =   0.30     relativ break condition  

   TIME   =   0.40     timestep for ELM

  volume/ion in A,a.u.               =      54.00       364.42
  Fermi-wavevector in a.u.,A,eV,Ry     =   0.924690  1.747410 11.633674  0.855051
  Thomas-Fermi vector in A             =   2.050463
 
 Write flags
   LWAVE        =      F    write WAVECAR
   LDOWNSAMPLE  =      F    k-point downsampling of WAVECAR
   LCHARG       =      F    write CHGCAR
   LVTOT        =      F    write LOCPOT, total local potential
   LVHAR        =      F    write LOCPOT, Hartree potential only
   LELF         =      F    write electronic localiz. function (ELF)
   LORBIT       =     11    0 simple, 1 ext, 2 COOP (PROOUT), +10 PAW based schemes


 Dipole corrections
   LMONO  =      F    monopole corrections only (constant potential shift)
   LDIPOL =      T    correct potential (dipole corrections)
   IDIPOL =      3    1-x, 2-y, 3-z, 4-all directions 
   EPSILON=  1.0000000 bulk dielectric constant

 Exchange correlation treatment:
   GGA     =    --    GGA type
   LEXCH   =     8    internal setting for exchange type
   VOSKOWN=      0    Vosko Wilk Nusair interpolation
   LHFCALC =     F    Hartree Fock is set to
   LHFONE  =     F    Hartree Fock one center treatment
   AEXX    =    0.0000 exact exchange contribution

 Linear response parameters
   LEPSILON=     F    determine dielectric tensor
   LRPA    =     F    only Hartree local field effects (RPA)
   LNABLA  =     F    use nabla operator in PAW spheres
   LVEL    =     F    velocity operator in full k-point grid
   LINTERFAST=   F  fast interpolation
   KINTER  =     0    interpolate to denser k-point grid
   CSHIFT  =0.1000    complex shift for real part using Kramers Kronig
   OMEGAMAX=  -1.0    maximum frequency
   DEG_THRESHOLD= 0.2000000E-02 threshold for treating states as degnerate
   RTIME   =   -0.100 relaxation time in fs
  (WPLASMAI=    0.000 imaginary part of plasma frequency in eV, 0.658/RTIME)
   DFIELD  = 0.0000000 0.0000000 0.0000000 field for delta impulse in time
 
 Orbital magnetization related:
   ORBITALMAG=     F  switch on orbital magnetization
   LCHIMAG   =     F  perturbation theory with respect to B field
   DQ        =  0.001000  dq finite difference perturbation B field
   LLRAUG    =     F  two centre corrections for induced B field



--------------------------------------------------------------------------------------------------------


 quickmin algorithm: (dynamic with friction)
   using selective dynamics as specified on POSCAR
 charge density and potential will be updated during run
 spin polarized calculation
 RMM-DIIS sequential band-by-band and
  variant of blocked Davidson during initial phase
 perform sub-space diagonalisation
    before iterative eigenvector-optimisation
 modified Broyden-mixing scheme, WC =      100.0
 initial mixing is a Kerker type mixing with AMIX =  0.4000 and BMIX =      1.0000
 Hartree-type preconditioning will be used
 using additional bands          100
 real space projection scheme for non local part
 use partial core corrections
 calculate Harris-corrections to forces 
   (improved forces if not selfconsistent)
 use gradient corrections 
 use of overlap-Matrix (Vanderbilt PP)
 Methfessel and Paxton  Order N= 1 SIGMA  =   0.20


--------------------------------------------------------------------------------------------------------


  energy-cutoff  :      400.00
  volume of cell :     3618.13
      direct lattice vectors                 reciprocal lattice vectors
    10.982000000  0.000000000  0.000000000     0.091058095  0.000000000  0.000000000
     0.000000000 10.982000000  0.000000000     0.000000000  0.091058095  0.000000000
     0.000000000  0.000000000 30.000000000     0.000000000  0.000000000  0.033333333

  length of vectors
    10.982000000 10.982000000 30.000000000     0.091058095  0.091058095  0.033333333


 
 k-points in units of 2pi/SCALE and weight: K-Point Grid                            
   0.01138226  0.01138226  0.00000000       0.125
   0.03414679  0.01138226  0.00000000       0.125
  -0.03414679  0.01138226  0.00000000       0.125
  -0.01138226  0.01138226  0.00000000       0.125
   0.01138226  0.03414679  0.00000000       0.125
   0.03414679  0.03414679  0.00000000       0.125
  -0.03414679  0.03414679  0.00000000       0.125
  -0.01138226  0.03414679  0.00000000       0.125
 
 k-points in reciprocal lattice and weights: K-Point Grid                            
   0.12500000  0.12500000  0.00000000       0.125
   0.37500000  0.12500000  0.00000000       0.125
  -0.37500000  0.12500000  0.00000000       0.125
  -0.12500000  0.12500000  0.00000000       0.125
   0.12500000  0.37500000  0.00000000       0.125
   0.37500000  0.37500000  0.00000000       0.125
  -0.37500000  0.37500000  0.00000000       0.125
  -0.12500000  0.37500000  0.00000000       0.125
 
 position of ions in fractional coordinates (direct lattice) 
   0.12499372  0.12494690  0.40285849
   0.12499028  0.37496773  0.40284213
   0.12500201  0.62500659  0.40285424
   0.12500833  0.87498559  0.40287108
   0.37499864  0.12494073  0.40285942
   0.37499866  0.37497030  0.40284349
   0.37499865  0.62500464  0.40286842
   0.37499864  0.87497447  0.40287888
   0.62500320  0.12494686  0.40285866
   0.62500653  0.37496778  0.40284237
   0.62499472  0.62500648  0.40285454
   0.62498850  0.87498537  0.40287130
   0.87499642  0.12495408  0.40285788
   0.87499636  0.37496457  0.40284203
   0.87499630  0.62500553  0.40284669
   0.87499638  0.87500013  0.40286343
   0.99991365  0.99958310  0.46784025
   0.00001648  0.24984519  0.46780224
   0.00053677  0.49943501  0.46823695
   0.00016800  0.74919933  0.46792733
   0.25010419  0.99929225  0.46791597
   0.24970899  0.24976052  0.46802720
   0.25025127  0.49959300  0.46821749
   0.25006317  0.74889090  0.46820986
   0.49987642  0.99935457  0.46786843
   0.50029484  0.24976660  0.46797153
   0.49976082  0.49956373  0.46825902
   0.49988732  0.74880800  0.46813853
   0.75010046  0.99948180  0.46785967
   0.75007441  0.24984280  0.46779369
   0.74964011  0.49944086  0.46823816
   0.74976791  0.74920629  0.46793416
   0.12472720  0.12426386  0.53273554
   0.12602680  0.37477977  0.53364124
   0.12530145  0.62382086  0.53339047
   0.12512794  0.87393502  0.53272114
   0.37499411  0.12347618  0.53259253
   0.37510237  0.37310931  0.53315298
   0.37499311  0.62312415  0.53357432
   0.37505645  0.87366315  0.53292676
   0.62533973  0.12421805  0.53266403
   0.62409523  0.37471396  0.53357287
   0.62469483  0.62381524  0.53335663
   0.62480700  0.87394177  0.53273111
   0.87497652  0.12441598  0.53276026
   0.87510153  0.37402729  0.53294102
   0.87496871  0.62420139  0.53286793
   0.87490837  0.87425025  0.53268946
   0.99982639  0.99871979  0.59792501
   0.99960482  0.24829785  0.59822602
   0.99925670  0.49909491  0.59840163
   0.99921186  0.74912988  0.59816075
   0.24986794  0.99854069  0.59807924
   0.24992274  0.24555938  0.59812948
   0.24715647  0.49471314  0.60106356
   0.24885860  0.75113857  0.59909563
   0.50002790  0.99868825  0.59802214
   0.50015345  0.24562696  0.59816794
   0.50276674  0.49452275  0.60105699
   0.50106136  0.75114295  0.59923666
   0.75000698  0.99868436  0.59791364
   0.75028790  0.24844744  0.59809589
   0.75077043  0.49900902  0.59836626
   0.75061957  0.74917104  0.59805713
   0.37496414  0.55353648  0.64544200
   0.37493417  0.52730786  0.68513494
   0.37574744  0.66748652  0.63416102
 
 position of ions in cartesian coordinates  (Angst):
   1.37268106  1.37216685 12.08575456
   1.37264327  4.11789561 12.08526385
   1.37277202  6.86382242 12.08562713
   1.37284151  9.60909175 12.08613235
   4.11823506  1.37209910 12.08578258
   4.11823531  4.11792387 12.08530459
   4.11823515  6.86380092 12.08605245
   4.11823511  9.60896966 12.08636654
   6.86378513  1.37216638 12.08575969
   6.86382171  4.11789618 12.08527121
   6.86369200  6.86382116 12.08563615
   6.86362366  9.60908932 12.08613900
   9.60921072  1.37224571 12.08573647
   9.60920998  4.11786089 12.08526097
   9.60920933  6.86381075 12.08540084
   9.60921030  9.60925145 12.08590289
  10.98105166 10.97742165 14.03520738
   0.00018095  2.74379991 14.03406729
   0.00589481  5.48479525 14.04710849
   0.00184494  8.22770708 14.03781978
   2.74664417 10.97422750 14.03747911
   2.74230415  2.74286999 14.04081603
   2.74825946  5.48653034 14.04652478
   2.74619373  8.22431982 14.04629566
   5.48964280 10.97491188 14.03605294
   5.49423793  2.74293684 14.03914604
   5.48837330  5.48620886 14.04777058
   5.48976260  8.22340944 14.04415603
   8.23760321 10.97630909 14.03579001
   8.23731713  2.74377358 14.03381061
   8.23254764  5.48485957 14.04714487
   8.23395121  8.22778344 14.03802491
   1.36975409  1.36466571 15.98206631
   1.38402633  4.11583140 16.00923734
   1.37606048  6.85080064 16.00171409
   1.37415506  9.59755437 15.98163422
   4.11818531  1.35601541 15.97777600
   4.11937428  4.09748641 15.99458953
   4.11817432  6.84314938 16.00722974
   4.11886997  9.59456867 15.98780267
   6.86748090  1.36416258 15.97992082
   6.85381382  4.11510874 16.00718613
   6.86039866  6.85073899 16.00069900
   6.86163048  9.59762847 15.98193316
   9.60899216  1.36633634 15.98280770
   9.61036502  4.10756766 15.98823051
   9.60890632  6.85497964 15.98603797
   9.60824369  9.60101626 15.98068386
  10.98009345 10.96794072 17.93775038
  10.97766017  2.72680697 17.94678066
  10.97383707  5.48106028 17.95204894
  10.97334463  8.22694434 17.94482253
   2.74404968 10.96597386 17.94237735
   2.74465148  2.69673314 17.94388429
   2.71427238  5.43293972 18.03190665
   2.73296519  8.24900382 17.97286882
   5.49130634 10.96759442 17.94066411
   5.49268513  2.69747526 17.94503805
   5.52138435  5.43084885 18.03170983
   5.50265582  8.24905188 17.97709966
   8.23657664 10.96755159 17.93740934
   8.23966171  2.72844978 17.94287681
   8.24496086  5.48011704 17.95098775
   8.24330410  8.22739638 17.94171379
   4.11785621  6.07893761 19.36326001
   4.11752701  5.79089495 20.55404825
   4.12645834  7.33033697 19.02483045
 


--------------------------------------------------------------------------------------------------------


 k-point  1 :   0.1250 0.1250 0.0000  plane waves:   65671
 k-point  2 :   0.3750 0.1250 0.0000  plane waves:   65719
 k-point  3 :  -0.3750 0.1250 0.0000  plane waves:   65719
 k-point  4 :  -0.1250 0.1250 0.0000  plane waves:   65671
 k-point  5 :   0.1250 0.3750 0.0000  plane waves:   65719
 k-point  6 :   0.3750 0.3750 0.0000  plane waves:   65776
 k-point  7 :  -0.3750 0.3750 0.0000  plane waves:   65776
 k-point  8 :  -0.1250 0.3750 0.0000  plane waves:   65719

 maximum and minimum number of plane-waves per node :      8251     8187

 maximum number of plane-waves:     65776
 maximum index in each direction: 
   IXMAX=   18   IYMAX=   17   IZMAX=   48
   IXMIN=  -18   IYMIN=  -18   IZMIN=  -48


 real space projection operators:
  total allocation   :      39201.48 KBytes
  max/ min on nodes  :       4907.00       4894.05


 parallel 3D FFT for wavefunctions:
    minimum data exchange during FFTs selected (reduces bandwidth)
 parallel 3D FFT for charge:
    minimum data exchange during FFTs selected (reduces bandwidth)


 total amount of memory used by VASP MPI-rank0   231468. kBytes
=======================================================================

   base      :      30000. kBytes
   nonlr-proj:      12607. kBytes
   fftplans  :       9506. kBytes
   grid      :      26507. kBytes
   one-center:        279. kBytes
   wavefun   :     152569. kBytes
 
     INWAV:  cpu time    0.0001: real time    0.0004
 Broyden mixing: mesh for mixing (old mesh)
   NGX = 35   NGY = 35   NGZ = 97
  (NGX  =144   NGY  =144   NGZ  =392)
  gives a total of 118825 points

 initial charge density was supplied:
 charge density of overlapping atoms calculated
 number of electron     652.0000000 magnetization      67.0000000
 keeping initial charge density in first step


--------------------------------------------------------------------------------------------------------


 Maximum index for non-local projection operator          658
 Maximum index for augmentation-charges          678 (set IRDMAX)


--------------------------------------------------------------------------------------------------------


 First call to EWALD:  gamma=   0.115
 Maximum number of real-space cells 4x 4x 2
 Maximum number of reciprocal cells 2x 2x 5

    FEWALD:  cpu time    0.0032: real time    0.0409


--------------------------------------- Iteration      1(   1)  ---------------------------------------


    POTLOK:  cpu time    0.2254: real time    0.5341
    SETDIJ:  cpu time    0.0182: real time    0.1501
     EDDAV:  cpu time   41.4191: real time   41.8349
       DOS:  cpu time    0.0115: real time    0.1648
    --------------------------------------------
      LOOP:  cpu time   41.6742: real time   42.6839

 eigenvalue-minimisations  : 13716
 total energy-change (2. order) : 0.3949965E+04  (-0.2415524E+05)
 number of electron     652.0000000 magnetization      67.0000000
 augmentation part      652.0000000 magnetization      67.0000000

 DIPCOR: dipole corrections for dipol
 direction  3 min pos     1,
 dipolmoment           0.000000      0.000000     -0.000073 electrons x Angstroem
 Tr[quadrupol]    -13651.587607

 energy correction for charged system         0.000000 eV
 dipol+quadrupol energy correction           -0.000000 eV
 added-field ion interaction          0.000259 eV  (added to PSCEN)


 Free energy of the ion-electron system (eV)
  ---------------------------------------------------
  alpha Z        PSCENC =       760.16370740
  Ewald energy   TEWEN  =    381396.25672187
  -Hartree energ DENC   =   -434341.51785386
  -exchange      EXHF   =         0.00000000
  -V(xc)+E(xc)   XCENC  =     -1828.48773975
  PAW double counting   =     52178.46402774   -48199.64973638
  entropy T*S    EENTRO =        -0.00105481
  eigenvalues    EBANDS =      1451.91076705
  atomic energy  EATOM  =     52532.82595619
  Solvation  Ediel_sol  =         0.00000000
  ---------------------------------------------------
  free energy    TOTEN  =      3949.96479543 eV

  energy without entropy =     3949.96585024  energy(sigma->0) =     3949.96514703


--------------------------------------------------------------------------------------------------------




--------------------------------------- Iteration      1(   2)  ---------------------------------------


     EDDAV:  cpu time   47.1982: real time   47.3372
       DOS:  cpu time    0.0089: real time    0.0090
    --------------------------------------------
      LOOP:  cpu time   47.2071: real time   47.3462

 eigenvalue-minimisations  : 16206
 total energy-change (2. order) :-0.4023572E+04  (-0.3694910E+04)
 number of electron     652.0000000 magnetization      67.0000000
 augmentation part      652.0000000 magnetization      67.0000000

 DIPCOR: dipole corrections for dipol
 direction  3 min pos     1,
 dipolmoment           0.000000      0.000000     -0.000073 electrons x Angstroem
 Tr[quadrupol]    -13651.587607

 energy correction for charged system         0.000000 eV
 dipol+quadrupol energy correction           -0.000000 eV
 added-field ion interaction          0.000259 eV  (added to PSCEN)


 Free energy of the ion-electron system (eV)
  ---------------------------------------------------
  alpha Z        PSCENC =       760.16370740
  Ewald energy   TEWEN  =    381396.25672187
  -Hartree energ DENC   =   -434341.51785386
  -exchange      EXHF   =         0.00000000
  -V(xc)+E(xc)   XCENC  =     -1828.48773975
  PAW double counting   =     52178.46402774   -48199.64973638
  entropy T*S    EENTRO =        -0.00226514
  eigenvalues    EBANDS =     -2571.66012872
  atomic energy  EATOM  =     52532.82595619
  Solvation  Ediel_sol  =         0.00000000
  ---------------------------------------------------
  free energy    TOTEN  =       -73.60731067 eV

  energy without entropy =      -73.60504553  energy(sigma->0) =      -73.60655562


--------------------------------------------------------------------------------------------------------




--------------------------------------- Iteration      1(   3)  ---------------------------------------


     EDDAV:  cpu time   44.6870: real time   44.7859
       DOS:  cpu time    0.0091: real time    0.0091
    --------------------------------------------
      LOOP:  cpu time   44.6960: real time   44.7950

 eigenvalue-minimisations  : 15384
 total energy-change (2. order) :-0.2591638E+03  (-0.2361704E+03)
 number of electron     652.0000000 magnetization      67.0000000
 augmentation part      652.0000000 magnetization      67.0000000

 DIPCOR: dipole corrections for dipol
 direction  3 min pos     1,
 dipolmoment           0.000000      0.000000     -0.000073 electrons x Angstroem
 Tr[quadrupol]    -13651.587607

 energy correction for charged system         0.000000 eV
 dipol+quadrupol energy correction           -0.000000 eV
 added-field ion interaction          0.000259 eV  (added to PSCEN)


 Free energy of the ion-electron system (eV)
  ---------------------------------------------------
  alpha Z        PSCENC =       760.16370740
  Ewald energy   TEWEN  =    381396.25672187
  -Hartree energ DENC   =   -434341.51785386
  -exchange      EXHF   =         0.00000000
  -V(xc)+E(xc)   XCENC  =     -1828.48773975
  PAW double counting   =     52178.46402774   -48199.64973638
  entropy T*S    EENTRO =         0.17628016
  eigenvalues    EBANDS =     -2831.00242498
  atomic energy  EATOM  =     52532.82595619
  Solvation  Ediel_sol  =         0.00000000
  ---------------------------------------------------
  free energy    TOTEN  =      -332.77106162 eV

  energy without entropy =     -332.94734178  energy(sigma->0) =     -332.82982168


--------------------------------------------------------------------------------------------------------




--------------------------------------- Iteration      1(   4)  ---------------------------------------


     EDDAV:  cpu time   44.6799: real time   44.7827
       DOS:  cpu time    0.0091: real time    0.0092
    --------------------------------------------
      LOOP:  cpu time   44.6891: real time   44.7918

 eigenvalue-minimisations  : 15336
 total energy-change (2. order) :-0.6543159E+01  (-0.6450044E+01)
 number of electron     652.0000000 magnetization      67.0000000
 augmentation part      652.0000000 magnetization      67.0000000

 DIPCOR: dipole corrections for dipol
 direction  3 min pos     1,
 dipolmoment           0.000000      0.000000     -0.000073 electrons x Angstroem
 Tr[quadrupol]    -13651.587607

 energy correction for charged system         0.000000 eV
 dipol+quadrupol energy correction           -0.000000 eV
 added-field ion interaction          0.000259 eV  (added to PSCEN)


 Free energy of the ion-electron system (eV)
  ---------------------------------------------------
  alpha Z        PSCENC =       760.16370740
  Ewald energy   TEWEN  =    381396.25672187
  -Hartree energ DENC   =   -434341.51785386
  -exchange      EXHF   =         0.00000000
  -V(xc)+E(xc)   XCENC  =     -1828.48773975
  PAW double counting   =     52178.46402774   -48199.64973638
  entropy T*S    EENTRO =         0.17815261
  eigenvalues    EBANDS =     -2837.54745633
  atomic energy  EATOM  =     52532.82595619
  Solvation  Ediel_sol  =         0.00000000
  ---------------------------------------------------
  free energy    TOTEN  =      -339.31422052 eV

  energy without entropy =     -339.49237314  energy(sigma->0) =     -339.37360473


--------------------------------------------------------------------------------------------------------




--------------------------------------- Iteration      1(   5)  ---------------------------------------


     EDDAV:  cpu time   47.3835: real time   47.4952
       DOS:  cpu time    0.0108: real time    0.0109
    CHARGE:  cpu time    2.5514: real time    2.7317
    MIXING:  cpu time    0.2019: real time    0.3796
    --------------------------------------------
      LOOP:  cpu time   50.1477: real time   50.6173

 eigenvalue-minimisations  : 16512
 total energy-change (2. order) :-0.2644269E+00  (-0.2639504E+00)
 number of electron     651.9999527 magnetization      64.6371127
 augmentation part      260.2619642 magnetization      50.5907784

 DIPCOR: dipole corrections for dipol
 direction  3 min pos     1,
 dipolmoment           0.000000      0.000000     -0.000073 electrons x Angstroem
 Tr[quadrupol]    -13651.587607

 energy correction for charged system         0.000000 eV
 dipol+quadrupol energy correction           -0.000000 eV
 added-field ion interaction          0.000259 eV  (added to PSCEN)


 Broyden mixing:
  rms(total) = 0.57895E+01    rms(broyden)= 0.57889E+01
  rms(prec ) = 0.58433E+01
  weight for this iteration     100.00

 Free energy of the ion-electron system (eV)
  ---------------------------------------------------
  alpha Z        PSCENC =       760.16370740
  Ewald energy   TEWEN  =    381396.25672187
  -Hartree energ DENC   =   -434341.51785386
  -exchange      EXHF   =         0.00000000
  -V(xc)+E(xc)   XCENC  =     -1828.48773975
  PAW double counting   =     52178.46402774   -48199.64973638
  entropy T*S    EENTRO =         0.17827220
  eigenvalues    EBANDS =     -2837.81200285
  atomic energy  EATOM  =     52532.82595619
  Solvation  Ediel_sol  =         0.00000000
  ---------------------------------------------------
  free energy    TOTEN  =      -339.57864746 eV

  energy without entropy =     -339.75691966  energy(sigma->0) =     -339.63807153


--------------------------------------------------------------------------------------------------------




--------------------------------------- Iteration      1(   6)  ---------------------------------------


    POTLOK:  cpu time    0.2094: real time    0.2149
    SETDIJ:  cpu time    0.0169: real time    0.0169
    EDDIAG:  cpu time    7.9593: real time    8.0302
  RMM-DIIS:  cpu time   24.1921: real time   24.2570
    ORTHCH:  cpu time    1.2389: real time    1.2415
       DOS:  cpu time    0.0094: real time    0.0094
    CHARGE:  cpu time    2.5955: real time    2.6008
    MIXING:  cpu time    0.0050: real time    0.0073
    --------------------------------------------
      LOOP:  cpu time   36.2265: real time   36.3780

 eigenvalue-minimisations  : 13649
 total energy-change (2. order) : 0.2500399E+02  (-0.6738355E+01)
 number of electron     651.9999508 magnetization      61.7423623
 augmentation part      271.0820058 magnetization      46.7567857

 DIPCOR: dipole corrections for dipol
 direction  3 min pos     1,
 dipolmoment           0.000000      0.000000      0.193273 electrons x Angstroem
 Tr[quadrupol]    -13655.971223

 energy correction for charged system         0.000000 eV
 dipol+quadrupol energy correction           -0.000934 eV
 added-field ion interaction         -0.688676 eV  (added to PSCEN)


 Broyden mixing:
  rms(total) = 0.33258E+01    rms(broyden)= 0.33247E+01
  rms(prec ) = 0.33861E+01
  weight for this iteration     100.00

 eigenvalues of (default mixing * dielectric matrix)
  average eigenvalue GAMMA=   1.0395
  1.0395

 Free energy of the ion-electron system (eV)
  ---------------------------------------------------
  alpha Z        PSCENC =       759.47383825
  Ewald energy   TEWEN  =    381396.25672187
  -Hartree energ DENC   =   -434122.75119591
  -exchange      EXHF   =         0.00000000
  -V(xc)+E(xc)   XCENC  =     -1832.37217080
  PAW double counting   =     56004.72453988   -52102.42033183
  entropy T*S    EENTRO =         0.09718107
  eigenvalues    EBANDS =     -2950.40920015
  atomic energy  EATOM  =     52532.82595619
  Solvation  Ediel_sol  =         0.00000000
  ---------------------------------------------------
  free energy    TOTEN  =      -314.57466145 eV

  energy without entropy =     -314.67184252  energy(sigma->0) =     -314.60705514


--------------------------------------------------------------------------------------------------------




--------------------------------------- Iteration      1(   7)  ---------------------------------------


    POTLOK:  cpu time    0.2068: real time    0.2119
    SETDIJ:  cpu time    0.0173: real time    0.0173
    EDDIAG:  cpu time    7.9673: real time    7.9827
  RMM-DIIS:  cpu time   23.8010: real time   23.8478
    ORTHCH:  cpu time    1.2362: real time    1.2387
       DOS:  cpu time    0.0086: real time    0.0086
    CHARGE:  cpu time    2.6031: real time    2.6084
    MIXING:  cpu time    0.0051: real time    0.0051
    --------------------------------------------
      LOOP:  cpu time   35.8454: real time   35.9206

 eigenvalue-minimisations  : 13646
 total energy-change (2. order) : 0.1412649E+00  (-0.3612469E+01)
 number of electron     651.9999515 magnetization      59.7310424
 augmentation part      268.6741474 magnetization      43.4297395

 DIPCOR: dipole corrections for dipol
 direction  3 min pos     1,
 dipolmoment           0.000000      0.000000     -0.762367 electrons x Angstroem
 Tr[quadrupol]    -13667.623734

 energy correction for charged system         0.000000 eV
 dipol+quadrupol energy correction           -0.014534 eV
 added-field ion interaction          2.716493 eV  (added to PSCEN)


 Broyden mixing:
  rms(total) = 0.32510E+01    rms(broyden)= 0.32490E+01
  rms(prec ) = 0.36180E+01
  weight for this iteration     100.00

 eigenvalues of (default mixing * dielectric matrix)
  average eigenvalue GAMMA=   0.9707
  1.4724  0.4690

 Free energy of the ion-electron system (eV)
  ---------------------------------------------------
  alpha Z        PSCENC =       762.86540762
  Ewald energy   TEWEN  =    381396.25672187
  -Hartree energ DENC   =   -434540.85841773
  -exchange      EXHF   =         0.00000000
  -V(xc)+E(xc)   XCENC  =     -1826.15661227
  PAW double counting   =     58876.41687659   -55004.63977829
  entropy T*S    EENTRO =         0.00967372
  eigenvalues    EBANDS =     -2511.15322422
  atomic energy  EATOM  =     52532.82595619
  Solvation  Ediel_sol  =         0.00000000
  ---------------------------------------------------
  free energy    TOTEN  =      -314.43339652 eV

  energy without entropy =     -314.44307024  energy(sigma->0) =     -314.43662109


--------------------------------------------------------------------------------------------------------




--------------------------------------- Iteration      1(   8)  ---------------------------------------


    POTLOK:  cpu time    0.2080: real time    0.2133
    SETDIJ:  cpu time    0.0172: real time    0.0173
    EDDIAG:  cpu time    7.9242: real time    7.9394
  RMM-DIIS:  cpu time   23.9867: real time   24.0354
    ORTHCH:  cpu time    1.2383: real time    1.2409
       DOS:  cpu time    0.0090: real time    0.0090
    CHARGE:  cpu time    2.6274: real time    2.6327
    MIXING:  cpu time    0.0050: real time    0.0050
    --------------------------------------------
      LOOP:  cpu time   36.0158: real time   36.0930

 eigenvalue-minimisations  : 13666
 total energy-change (2. order) :-0.1188312E+02  (-0.3061958E+01)
 number of electron     651.9999467 magnetization      58.4143232
 augmentation part      269.1857223 magnetization      45.2336818

 DIPCOR: dipole corrections for dipol
 direction  3 min pos     1,
 dipolmoment           0.000000      0.000000      0.973832 electrons x Angstroem
 Tr[quadrupol]    -13665.704129

 energy correction for charged system         0.000000 eV
 dipol+quadrupol energy correction           -0.023715 eV
 added-field ion interaction         -3.469993 eV  (added to PSCEN)


 Broyden mixing:
  rms(total) = 0.53369E+01    rms(broyden)= 0.53366E+01
  rms(prec ) = 0.66800E+01
  weight for this iteration     100.00

 eigenvalues of (default mixing * dielectric matrix)
  average eigenvalue GAMMA=   0.8379
  1.7698  0.5840  0.1600

 Free energy of the ion-electron system (eV)
  ---------------------------------------------------
  alpha Z        PSCENC =       756.66974042
  Ewald energy   TEWEN  =    381396.25672187
  -Hartree energ DENC   =   -434461.62689353
  -exchange      EXHF   =         0.00000000
  -V(xc)+E(xc)   XCENC  =     -1819.91186916
  PAW double counting   =     60226.14115116   -56372.64934199
  entropy T*S    EENTRO =        -0.01331059
  eigenvalues    EBANDS =     -2584.00867199
  atomic energy  EATOM  =     52532.82595619
  Solvation  Ediel_sol  =         0.00000000
  ---------------------------------------------------
  free energy    TOTEN  =      -326.31651762 eV

  energy without entropy =     -326.30320703  energy(sigma->0) =     -326.31208076


--------------------------------------------------------------------------------------------------------




--------------------------------------- Iteration      1(   9)  ---------------------------------------


    POTLOK:  cpu time    0.2066: real time    0.2114
    SETDIJ:  cpu time    0.0172: real time    0.0172
    EDDIAG:  cpu time    7.9275: real time    7.9429
  RMM-DIIS:  cpu time   23.9207: real time   23.9676
    ORTHCH:  cpu time    1.2377: real time    1.2402
       DOS:  cpu time    0.0090: real time    0.0090
    CHARGE:  cpu time    2.5965: real time    2.6019
    MIXING:  cpu time    0.0053: real time    0.0054
    --------------------------------------------
      LOOP:  cpu time   35.9206: real time   35.9955

 eigenvalue-minimisations  : 13666
 total energy-change (2. order) : 0.2218877E+02  (-0.1462152E+01)
 number of electron     651.9999526 magnetization      57.5001092
 augmentation part      270.5680182 magnetization      42.7962366

 DIPCOR: dipole corrections for dipol
 direction  3 min pos     1,
 dipolmoment           0.000000      0.000000     -0.857254 electrons x Angstroem
 Tr[quadrupol]    -13667.207995

 energy correction for charged system         0.000000 eV
 dipol+quadrupol energy correction           -0.018377 eV
 added-field ion interaction          3.054598 eV  (added to PSCEN)


 Broyden mixing:
  rms(total) = 0.38989E+01    rms(broyden)= 0.38987E+01
  rms(prec ) = 0.49079E+01
  weight for this iteration     100.00

 eigenvalues of (default mixing * dielectric matrix)
  average eigenvalue GAMMA=   0.7215
  1.9260  0.6394  0.2220  0.0987

 Free energy of the ion-electron system (eV)
  ---------------------------------------------------
  alpha Z        PSCENC =       763.19966971
  Ewald energy   TEWEN  =    381396.25672187
  -Hartree energ DENC   =   -434502.62275589
  -exchange      EXHF   =         0.00000000
  -V(xc)+E(xc)   XCENC  =     -1816.94493640
  PAW double counting   =     60897.32475656   -57053.85273139
  entropy T*S    EENTRO =        -0.04238687
  eigenvalues    EBANDS =     -2520.27203669
  atomic energy  EATOM  =     52532.82595619
  Solvation  Ediel_sol  =         0.00000000
  ---------------------------------------------------
  free energy    TOTEN  =      -304.12774291 eV

  energy without entropy =     -304.08535604  energy(sigma->0) =     -304.11361395


--------------------------------------------------------------------------------------------------------




--------------------------------------- Iteration      1(  10)  ---------------------------------------


    POTLOK:  cpu time    0.2074: real time    0.2099
    SETDIJ:  cpu time    0.0170: real time    0.0170
    EDDIAG:  cpu time    8.1644: real time    8.1823
  RMM-DIIS:  cpu time   23.9505: real time   23.9972
    ORTHCH:  cpu time    1.2390: real time    1.2420
       DOS:  cpu time    0.0094: real time    0.0094
    CHARGE:  cpu time    2.5559: real time    2.5612
    MIXING:  cpu time    0.0057: real time    0.0057
    --------------------------------------------
      LOOP:  cpu time   36.1493: real time   36.2247

 eigenvalue-minimisations  : 13684
 total energy-change (2. order) : 0.1470536E+02  (-0.4976785E+00)
 number of electron     651.9999511 magnetization      56.5251762
 augmentation part      271.4556469 magnetization      40.1043692

 DIPCOR: dipole corrections for dipol
 direction  3 min pos     1,
 dipolmoment           0.000000      0.000000      0.062385 electrons x Angstroem
 Tr[quadrupol]    -13668.780972

 energy correction for charged system         0.000000 eV
 dipol+quadrupol energy correction           -0.000097 eV
 added-field ion interaction         -0.222292 eV  (added to PSCEN)


 Broyden mixing:
  rms(total) = 0.18628E+01    rms(broyden)= 0.18621E+01
  rms(prec ) = 0.20035E+01
  weight for this iteration     100.00

 eigenvalues of (default mixing * dielectric matrix)
  average eigenvalue GAMMA=   0.6561
  2.0090  0.6412  0.3188  0.2191  0.0924

 Free energy of the ion-electron system (eV)
  ---------------------------------------------------
  alpha Z        PSCENC =       759.94105858
  Ewald energy   TEWEN  =    381396.25672187
  -Hartree energ DENC   =   -434570.38126715
  -exchange      EXHF   =         0.00000000
  -V(xc)+E(xc)   XCENC  =     -1816.74868934
  PAW double counting   =     61247.31270423   -57408.88719723
  entropy T*S    EENTRO =        -0.05579037
  eigenvalues    EBANDS =     -2429.68588395
  atomic energy  EATOM  =     52532.82595619
  Solvation  Ediel_sol  =         0.00000000
  ---------------------------------------------------
  free energy    TOTEN  =      -289.42238718 eV

  energy without entropy =     -289.36659682  energy(sigma->0) =     -289.40379040


--------------------------------------------------------------------------------------------------------




--------------------------------------- Iteration      1(  11)  ---------------------------------------


    POTLOK:  cpu time    0.2063: real time    0.2115
    SETDIJ:  cpu time    0.0171: real time    0.0171
    EDDIAG:  cpu time    7.9691: real time    7.9841
  RMM-DIIS:  cpu time   23.9394: real time   23.9878
    ORTHCH:  cpu time    1.2374: real time    1.2400
       DOS:  cpu time    0.0091: real time    0.0091
    CHARGE:  cpu time    2.6226: real time    2.6281
    MIXING:  cpu time    0.0059: real time    0.0059
    --------------------------------------------
      LOOP:  cpu time   36.0068: real time   36.0835

 eigenvalue-minimisations  : 13674
 total energy-change (2. order) : 0.1298999E+01  (-0.6030270E+00)
 number of electron     651.9999512 magnetization      54.5623312
 augmentation part      271.5486284 magnetization      38.3160266

 DIPCOR: dipole corrections for dipol
 direction  3 min pos     1,
 dipolmoment           0.000000      0.000000     -0.071804 electrons x Angstroem
 Tr[quadrupol]    -13668.648143

 energy correction for charged system         0.000000 eV
 dipol+quadrupol energy correction           -0.000129 eV
 added-field ion interaction          0.255854 eV  (added to PSCEN)


 Broyden mixing:
  rms(total) = 0.14232E+01    rms(broyden)= 0.14230E+01
  rms(prec ) = 0.15197E+01
  weight for this iteration     100.00

 eigenvalues of (default mixing * dielectric matrix)
  average eigenvalue GAMMA=   0.6479
  2.1112  0.7385  0.4739  0.2359  0.2359  0.0920

 Free energy of the ion-electron system (eV)
  ---------------------------------------------------
  alpha Z        PSCENC =       760.41917298
  Ewald energy   TEWEN  =    381396.25672187
  -Hartree energ DENC   =   -434564.41938763
  -exchange      EXHF   =         0.00000000
  -V(xc)+E(xc)   XCENC  =     -1816.80802904
  PAW double counting   =     61445.97365292   -57608.63542994
  entropy T*S    EENTRO =         0.00313199
  eigenvalues    EBANDS =     -2433.73917724
  atomic energy  EATOM  =     52532.82595619
  Solvation  Ediel_sol  =         0.00000000
  ---------------------------------------------------
  free energy    TOTEN  =      -288.12338791 eV

  energy without entropy =     -288.12651990  energy(sigma->0) =     -288.12443190


--------------------------------------------------------------------------------------------------------




--------------------------------------- Iteration      1(  12)  ---------------------------------------


    POTLOK:  cpu time    0.2097: real time    0.2118
    SETDIJ:  cpu time    0.0171: real time    0.0171
    EDDIAG:  cpu time    7.9498: real time    7.9648
  RMM-DIIS:  cpu time   24.0941: real time   24.1416
    ORTHCH:  cpu time    1.2393: real time    1.2418
       DOS:  cpu time    0.0091: real time    0.0092
    CHARGE:  cpu time    2.5788: real time    2.5840
    MIXING:  cpu time    0.0062: real time    0.0062
    --------------------------------------------
      LOOP:  cpu time   36.1041: real time   36.1765

 eigenvalue-minimisations  : 13661
 total energy-change (2. order) :-0.1498488E+01  (-0.1674196E+00)
 number of electron     651.9999511 magnetization      53.6149301
 augmentation part      270.6209826 magnetization      37.2433397

 DIPCOR: dipole corrections for dipol
 direction  3 min pos     1,
 dipolmoment           0.000000      0.000000      0.029193 electrons x Angstroem
 Tr[quadrupol]    -13671.087353

 energy correction for charged system         0.000000 eV
 dipol+quadrupol energy correction           -0.000021 eV
 added-field ion interaction         -0.104021 eV  (added to PSCEN)


 Broyden mixing:
  rms(total) = 0.11688E+01    rms(broyden)= 0.11687E+01
  rms(prec ) = 0.12512E+01
  weight for this iteration     100.00

 eigenvalues of (default mixing * dielectric matrix)
  average eigenvalue GAMMA=   0.6132
  2.1195  0.7463  0.4456  0.4456  0.2218  0.2218  0.0918

 Free energy of the ion-electron system (eV)
  ---------------------------------------------------
  alpha Z        PSCENC =       760.05940598
  Ewald energy   TEWEN  =    381396.25672187
  -Hartree energ DENC   =   -434680.16669365
  -exchange      EXHF   =         0.00000000
  -V(xc)+E(xc)   XCENC  =     -1817.64903404
  PAW double counting   =     61787.95516403   -57952.05149933
  entropy T*S    EENTRO =        -0.00519876
  eigenvalues    EBANDS =     -2316.84669825
  atomic energy  EATOM  =     52532.82595619
  Solvation  Ediel_sol  =         0.00000000
  ---------------------------------------------------
  free energy    TOTEN  =      -289.62187597 eV

  energy without entropy =     -289.61667722  energy(sigma->0) =     -289.62014305


--------------------------------------------------------------------------------------------------------




--------------------------------------- Iteration      1(  13)  ---------------------------------------


    POTLOK:  cpu time    0.2137: real time    0.2156
    SETDIJ:  cpu time    0.0173: real time    0.0173
    EDDIAG:  cpu time    7.9343: real time    7.9493
  RMM-DIIS:  cpu time   24.1893: real time   24.2389
    ORTHCH:  cpu time    1.2367: real time    1.2393
       DOS:  cpu time    0.0090: real time    0.0091
    CHARGE:  cpu time    2.5725: real time    2.5780
    MIXING:  cpu time    0.0063: real time    0.0063
    --------------------------------------------
      LOOP:  cpu time   36.1791: real time   36.2538

 eigenvalue-minimisations  : 13677
 total energy-change (2. order) :-0.9746302E+00  (-0.1230709E+00)
 number of electron     651.9999512 magnetization      51.5662162
 augmentation part      270.6251060 magnetization      35.5237939

 DIPCOR: dipole corrections for dipol
 direction  3 min pos     1,
 dipolmoment           0.000000      0.000000     -0.000456 electrons x Angstroem
 Tr[quadrupol]    -13671.364040

 energy correction for charged system         0.000000 eV
 dipol+quadrupol energy correction           -0.000000 eV
 added-field ion interaction          0.001626 eV  (added to PSCEN)


 Broyden mixing:
  rms(total) = 0.10248E+01    rms(broyden)= 0.10248E+01
  rms(prec ) = 0.10926E+01
  weight for this iteration     100.00

 eigenvalues of (default mixing * dielectric matrix)
  average eigenvalue GAMMA=   0.6571
  2.1570  1.0144  0.6588  0.6588  0.2838  0.0919  0.1959  0.1959

 Free energy of the ion-electron system (eV)
  ---------------------------------------------------
  alpha Z        PSCENC =       760.16507376
  Ewald energy   TEWEN  =    381396.25672187
  -Hartree energ DENC   =   -434692.94699866
  -exchange      EXHF   =         0.00000000
  -V(xc)+E(xc)   XCENC  =     -1818.25039451
  PAW double counting   =     61837.23259118   -58001.19036289
  entropy T*S    EENTRO =         0.01964340
  eigenvalues    EBANDS =     -2304.70873650
  atomic energy  EATOM  =     52532.82595619
  Solvation  Ediel_sol  =         0.00000000
  ---------------------------------------------------
  free energy    TOTEN  =      -290.59650615 eV

  energy without entropy =     -290.61614956  energy(sigma->0) =     -290.60305396


--------------------------------------------------------------------------------------------------------




--------------------------------------- Iteration      1(  14)  ---------------------------------------


    POTLOK:  cpu time    0.2057: real time    0.2106
    SETDIJ:  cpu time    0.0171: real time    0.0172
    EDDIAG:  cpu time    7.9361: real time    7.9519
  RMM-DIIS:  cpu time   24.0321: real time   24.0824
    ORTHCH:  cpu time    1.2386: real time    1.2412
       DOS:  cpu time    0.0092: real time    0.0092
    CHARGE:  cpu time    2.6080: real time    2.6136
    MIXING:  cpu time    0.0070: real time    0.0070
    --------------------------------------------
      LOOP:  cpu time   36.0538: real time   36.1331

 eigenvalue-minimisations  : 13685
 total energy-change (2. order) :-0.3242024E+01  (-0.9032713E-01)
 number of electron     651.9999510 magnetization      49.9710663
 augmentation part      270.6682098 magnetization      34.6179291

 DIPCOR: dipole corrections for dipol
 direction  3 min pos     1,
 dipolmoment           0.000000      0.000000      0.117440 electrons x Angstroem
 Tr[quadrupol]    -13672.451766

 energy correction for charged system         0.000000 eV
 dipol+quadrupol energy correction           -0.000345 eV
 added-field ion interaction         -0.418468 eV  (added to PSCEN)


 Broyden mixing:
  rms(total) = 0.10091E+01    rms(broyden)= 0.10090E+01
  rms(prec ) = 0.11008E+01
  weight for this iteration     100.00

 eigenvalues of (default mixing * dielectric matrix)
  average eigenvalue GAMMA=   0.6508
  2.2075  1.2689  0.6799  0.6799  0.3086  0.0918  0.2199  0.2199  0.1803

 Free energy of the ion-electron system (eV)
  ---------------------------------------------------
  alpha Z        PSCENC =       759.74463519
  Ewald energy   TEWEN  =    381396.25672187
  -Hartree energ DENC   =   -434736.95557966
  -exchange      EXHF   =         0.00000000
  -V(xc)+E(xc)   XCENC  =     -1820.18836647
  PAW double counting   =     61904.77006709   -58068.81010518
  entropy T*S    EENTRO =         0.03709023
  eigenvalues    EBANDS =     -2261.51894898
  atomic energy  EATOM  =     52532.82595619
  Solvation  Ediel_sol  =         0.00000000
  ---------------------------------------------------
  free energy    TOTEN  =      -293.83852974 eV

  energy without entropy =     -293.87561997  energy(sigma->0) =     -293.85089315


--------------------------------------------------------------------------------------------------------




--------------------------------------- Iteration      1(  15)  ---------------------------------------


[...]
   -.188E+01 -.815E+00 0.939E+03   0.188E+01 0.836E+00 -.939E+03   -.858E-02 -.142E-01 -.413E-01   -.442E-03 -.344E-04 -.101E-02
   -.200E+01 0.679E+00 0.941E+03   0.205E+01 -.711E+00 -.941E+03   -.412E-01 0.337E-01 0.342E-01   -.225E-03 0.306E-03 -.136E-02
   -.454E+01 0.145E+01 0.937E+03   0.452E+01 -.147E+01 -.937E+03   0.207E-01 0.121E-01 -.935E-01   -.208E-04 0.153E-03 -.179E-02
   -.352E+01 -.176E+01 0.941E+03   0.353E+01 0.178E+01 -.941E+03   -.103E-02 -.157E-01 -.887E-02   -.379E-03 -.424E-03 -.142E-02
   0.112E+02 0.510E+01 -.827E+03   -.112E+02 -.508E+01 0.827E+03   -.139E-01 -.258E-01 0.411E-01   0.452E-03 0.888E-03 -.118E-02
   0.207E+02 0.138E+02 -.830E+03   -.206E+02 -.136E+02 0.830E+03   -.131E+00 -.219E+00 -.163E+00   0.671E-03 0.340E-03 -.137E-02
   0.193E+02 -.680E+01 -.822E+03   -.193E+02 0.677E+01 0.822E+03   -.386E-02 0.334E-01 0.721E-01   0.582E-03 -.850E-03 -.117E-02
   0.132E+02 -.107E+02 -.823E+03   -.132E+02 0.106E+02 0.823E+03   -.462E-02 0.772E-01 0.871E-01   0.328E-03 -.381E-03 -.977E-03
   -.386E-01 0.814E+01 -.815E+03   0.381E-01 -.813E+01 0.815E+03   0.404E-02 -.491E-02 0.483E-01   0.135E-03 0.653E-03 -.127E-02
   0.292E+00 0.158E+02 -.799E+03   -.291E+00 -.159E+02 0.799E+03   -.806E-02 0.109E+00 0.288E+00   -.403E-03 0.332E-03 -.170E-02
   -.288E+00 -.908E+01 -.792E+03   0.288E+00 0.921E+01 0.791E+03   0.421E-02 -.137E+00 0.667E+00   -.214E-03 -.648E-03 -.148E-02
   -.978E-01 -.151E+02 -.815E+03   0.986E-01 0.150E+02 0.815E+03   -.270E-02 0.364E-01 -.205E-02   0.339E-03 -.328E-03 -.108E-02
   -.105E+02 0.496E+01 -.826E+03   0.105E+02 -.495E+01 0.826E+03   -.268E-02 -.189E-01 0.521E-01   -.469E-03 0.372E-04 -.128E-02
   -.205E+02 0.135E+02 -.828E+03   0.204E+02 -.132E+02 0.828E+03   0.125E+00 -.213E+00 -.156E+00   -.664E-03 0.129E-03 -.138E-02
   -.186E+02 -.681E+01 -.821E+03   0.186E+02 0.678E+01 0.821E+03   -.893E-02 0.329E-01 0.846E-01   -.462E-03 -.136E-03 -.139E-02
   -.124E+02 -.103E+02 -.823E+03   0.124E+02 0.102E+02 0.823E+03   -.813E-02 0.721E-01 0.754E-01   -.231E-03 -.341E-04 -.129E-02
   -.465E+00 0.284E+01 -.836E+03   0.465E+00 -.283E+01 0.836E+03   0.594E-02 -.176E-01 0.403E-01   -.116E-03 0.248E-03 -.124E-02
   -.301E+00 0.696E+01 -.832E+03   0.302E+00 -.695E+01 0.832E+03   -.492E-03 -.781E-02 0.496E-01   0.390E-03 0.291E-03 -.115E-02
   -.337E+00 -.314E+01 -.827E+03   0.337E+00 0.313E+01 0.827E+03   0.691E-02 0.184E-01 0.474E-01   0.915E-04 -.294E-03 -.117E-02
   -.678E+00 -.636E+01 -.832E+03   0.677E+00 0.637E+01 0.832E+03   0.121E-01 -.472E-02 0.345E-01   -.435E-03 -.244E-03 -.122E-02
   0.123E+02 -.577E+01 -.258E+04   -.124E+02 0.576E+01 0.258E+04   0.257E-01 0.178E-01 0.324E+01   0.180E-03 0.138E-03 0.203E-04
   0.191E+02 0.186E+02 -.258E+04   -.191E+02 -.186E+02 0.258E+04   0.218E-01 0.349E-01 0.329E+01   0.378E-03 0.545E-03 -.228E-03
   0.429E+02 0.716E+01 -.257E+04   -.427E+02 -.718E+01 0.256E+04   -.198E+00 0.246E-01 0.328E+01   0.417E-03 -.127E-03 -.412E-03
   0.270E+02 -.214E+02 -.257E+04   -.269E+02 0.214E+02 0.257E+04   -.676E-01 0.104E-01 0.327E+01   0.207E-03 -.554E-03 -.415E-04
   0.155E+02 -.148E+02 -.257E+04   -.155E+02 0.147E+02 0.257E+04   -.125E-01 0.429E-01 0.318E+01   0.400E-03 0.576E-04 -.773E-04
   0.271E+02 0.543E+02 -.255E+04   -.272E+02 -.544E+02 0.255E+04   0.825E-01 0.112E+00 0.330E+01   -.223E-04 0.450E-03 -.717E-03
   0.156E+03 0.640E+02 -.243E+04   -.156E+03 -.641E+02 0.243E+04   -.246E+00 0.137E+00 0.154E+01   -.971E-04 -.508E-04 -.981E-03
   0.732E+02 -.877E+02 -.251E+04   -.729E+02 0.883E+02 0.251E+04   -.264E+00 -.620E+00 0.288E+01   0.122E-03 -.435E-03 -.287E-03
   -.155E+02 -.146E+02 -.257E+04   0.154E+02 0.146E+02 0.257E+04   0.159E-01 0.362E-01 0.318E+01   -.890E-04 0.314E-04 -.314E-03
   -.271E+02 0.548E+02 -.255E+04   0.271E+02 -.549E+02 0.255E+04   -.810E-01 0.995E-01 0.329E+01   -.260E-03 0.545E-04 -.640E-03
   -.156E+03 0.635E+02 -.243E+04   0.156E+03 -.637E+02 0.243E+04   0.250E+00 0.169E+00 0.155E+01   -.332E-03 -.265E-04 -.805E-03
   -.737E+02 -.880E+02 -.251E+04   0.734E+02 0.886E+02 0.251E+04   0.304E+00 -.600E+00 0.283E+01   -.186E-03 -.433E-04 -.457E-03
   -.125E+02 -.623E+01 -.258E+04   0.125E+02 0.621E+01 0.258E+04   -.221E-01 0.311E-01 0.325E+01   -.492E-03 -.662E-04 -.230E-03
   -.194E+02 0.191E+02 -.258E+04   0.194E+02 -.191E+02 0.258E+04   -.138E-01 0.155E-01 0.329E+01   -.878E-04 0.196E-03 -.203E-03
   -.426E+02 0.665E+01 -.257E+04   0.424E+02 -.668E+01 0.256E+04   0.192E+00 0.377E-01 0.329E+01   0.246E-04 0.666E-04 -.262E-03
   -.270E+02 -.209E+02 -.257E+04   0.270E+02 0.209E+02 0.257E+04   0.735E-01 -.152E-03 0.327E+01   -.139E-03 -.199E-03 -.222E-03
   0.565E-01 -.624E+02 -.141E+04   -.109E+00 0.652E+02 0.139E+04   0.543E-01 -.279E+01 0.223E+02   -.125E-03 0.335E-04 -.177E-03
   0.115E+00 0.615E+02 -.206E+04   -.135E+00 -.748E+02 0.211E+04   0.216E-01 0.134E+02 -.546E+02   -.638E-04 0.507E-06 0.289E-03
   -.304E-01 -.422E+02 -.302E+03   0.229E-01 0.439E+02 0.302E+03   0.334E-02 -.160E+01 0.112E+00   -.286E-04 0.140E-04 -.317E-04
 -----------------------------------------------------------------------------------------------
   -.113E+00 -.798E+01 0.360E+02   -.367E-12 0.142E-12 -.214E-10   0.115E+00 0.797E+01 -.359E+02   -.201E-03 0.762E-04 -.605E-01
 
 
 POSITION                                       TOTAL-FORCE (eV/Angst)
 -----------------------------------------------------------------------------------
      1.37268      1.37217     12.08575        -0.004898     -0.003994     -0.008844
      1.37264      4.11790     12.08526         0.005051      0.001716      0.014864
      1.37277      6.86382     12.08563        -0.001880     -0.021401      0.013143
      1.37284      9.60909     12.08613         0.004690     -0.018370      0.007660
      4.11824      1.37210     12.08578        -0.003526      0.001410      0.008102
      4.11824      4.11792     12.08530        -0.000275     -0.013173      0.027982
      4.11824      6.86380     12.08605        -0.001408     -0.005080      0.007183
      4.11824      9.60897     12.08637        -0.002766     -0.031556      0.015824
      6.86379      1.37217     12.08576         0.009484     -0.005169     -0.010670
      6.86382      4.11790     12.08527        -0.002464      0.005231      0.016142
      6.86369      6.86382     12.08564         0.003654     -0.026085      0.013003
      6.86362      9.60909     12.08614        -0.002980     -0.017857      0.004944
      9.60921      1.37225     12.08574         0.000035     -0.041683     -0.057347
      9.60921      4.11786     12.08526         0.001753      0.003964      0.010792
      9.60921      6.86381     12.08540         0.000451     -0.028446      0.029511
      9.60921      9.60925     12.08590        -0.000574      0.006730     -0.019803
     10.98105     10.97742     14.03521         0.007568     -0.002220      0.008463
      0.00018      2.74380     14.03407        -0.009200      0.001989     -0.005819
      0.00589      5.48480     14.04711        -0.009492     -0.003209     -0.004075
      0.00184      8.22771     14.03782        -0.009090      0.010258     -0.003689
      2.74664     10.97423     14.03748        -0.014783      0.003498     -0.005818
      2.74230      2.74287     14.04082         0.011939      0.007298     -0.012552
      2.74826      5.48653     14.04652         0.002209     -0.006448      0.019397
      2.74619      8.22432     14.04630         0.002790      0.006049     -0.017849
      5.48964     10.97491     14.03605         0.014109     -0.006026      0.005761
      5.49424      2.74294     14.03915        -0.011167      0.005725     -0.003243
      5.48837      5.48621     14.04777         0.001478     -0.004374      0.006053
      5.48976      8.22341     14.04416        -0.000992      0.015120      0.000101
      8.23760     10.97631     14.03579        -0.008104      0.006254     -0.004676
      8.23732      2.74377     14.03381         0.008859      0.001100     -0.009180
      8.23255      5.48486     14.04714         0.000516     -0.003970     -0.008802
      8.23395      8.22778     14.03802         0.010807      0.007759     -0.007812
      1.36975      1.36467     15.98207        -0.012379     -0.010436     -0.006065
      1.38403      4.11583     16.00924         0.009579      0.005929      0.007154
      1.37606      6.85080     16.00171         0.005766     -0.000676      0.005300
      1.37416      9.59755     15.98163        -0.001585      0.004137      0.015428
      4.11819      1.35602     15.97778         0.003558      0.008248     -0.007869
      4.11937      4.09749     15.99459        -0.007499      0.009913      0.001716
      4.11817      6.84315     16.00723         0.004260     -0.003011      0.013047
      4.11887      9.59457     15.98780        -0.001466     -0.014722      0.006490
      6.86748      1.36416     15.97992        -0.002381     -0.005506      0.002252
      6.85381      4.11511     16.00719        -0.015036      0.011536      0.010470
      6.86040      6.85074     16.00070        -0.016171     -0.000944      0.013591
      6.86163      9.59763     15.98193        -0.010872     -0.000611      0.006610
      9.60899      1.36634     15.98281         0.006270     -0.004338     -0.003022
      9.61037      4.10757     15.98823         0.000626     -0.001583      0.011656
      9.60891      6.85498     15.98604         0.006442      0.000632      0.000760
      9.60824      9.60102     15.98068         0.010950      0.004078     -0.007509
     10.98009     10.96794     17.93775         0.007253      0.003943     -0.012556
     10.97766      2.72681     17.94678        -0.001541      0.013125     -0.009078
     10.97384      5.48106     17.95205         0.000138     -0.000504     -0.008293
     10.97334      8.22694     17.94482         0.005101      0.007090     -0.011527
      2.74405     10.96597     17.94238        -0.005397      0.007205     -0.009509
      2.74465      2.69673     17.94388         0.000755      0.012337      0.005073
      2.71427      5.43294     18.03191        -0.010548     -0.006290     -0.020954
      2.73297      8.24900     17.97287         0.006956      0.011065     -0.003066
      5.49131     10.96759     17.94066         0.007519      0.001842     -0.003742
      5.49269      2.69748     17.94504        -0.000576      0.005048     -0.003201
      5.52138      5.43085     18.03171         0.019138      0.002587     -0.023458
      5.50266      8.24905     17.97710        -0.007448      0.009588     -0.016812
      8.23658     10.96755     17.93741        -0.003718      0.011860     -0.007817
      8.23966      2.72845     17.94288         0.007484      0.001402      0.005153
      8.24496      5.48012     17.95099        -0.004154      0.006634     -0.005866
      8.24330      8.22740     17.94171        -0.001134      0.000316      0.003732
      4.11786      6.07894     19.36326         0.001412      0.027132      0.001606
      4.11753      5.79089     20.55405         0.000890      0.008856      0.034541
      4.12646      7.33034     19.02483        -0.003982      0.029074     -0.012978
 -----------------------------------------------------------------------------------
    total drift:                                0.002162     -0.008715      0.017933


--------------------------------------------------------------------------------------------------------



  FREE ENERGIE OF THE ION-ELECTRON SYSTEM (eV)
  ---------------------------------------------------
  free  energy   TOTEN  =      -353.91686823 eV

  energy  without entropy=     -353.79775485  energy(sigma->0) =     -353.87716377
 


--------------------------------------------------------------------------------------------------------


    POTLOK:  cpu time    0.2160: real time    0.2383


--------------------------------------------------------------------------------------------------------


 Dimer: Init Mode:
 Dimer: MODECAR found
 Dimer: -----------------
 Dimer: Itr    1 Rot    0

 Dimer: Central Point
 Dimer: F0      0.115059

 Dimer: Projection
 Dimer: N*F0  1.825647070504923E-002
 Dimer: F0sq  1.323847539800905E-002
 Dimer: Feffsq   3.332987226043208E-004
 
 stress matrix after NEB project (eV)
    -37.15885     -0.00053      0.02069
     -0.00053    -36.25594      0.98378
      0.02069      0.98378     -4.88463
  FORCES: max atom, RMS     0.035669    0.014057
  FORCE total and by dimension    0.115059    0.034541
  Stress total and by dimension   52.163871   37.158850
 OPT: skip step - force has converged


--------------------------------------------------------------------------------------------------------


  
 reached required accuracy - stopping structural energy minimisation
     LOOP+:  cpu time 1989.5472: real time 1995.9690
    4ORBIT:  cpu time    0.0000: real time    0.0000
 


 total charge     
 
# of ion       s       p       d       tot
------------------------------------------
    1        0.444   0.308   8.522   9.275
    2        0.445   0.307   8.522   9.274
    3        0.444   0.307   8.523   9.274
    4        0.445   0.307   8.522   9.274
    5        0.446   0.306   8.523   9.275
    6        0.444   0.307   8.522   9.273
    7        0.446   0.307   8.522   9.274
    8        0.445   0.307   8.523   9.274
    9        0.444   0.308   8.522   9.275
   10        0.445   0.307   8.522   9.274
   11        0.444   0.307   8.523   9.274
   12        0.445   0.308   8.522   9.275
   13        0.446   0.309   8.522   9.277
   14        0.444   0.307   8.522   9.273
   15        0.446   0.305   8.524   9.274
   16        0.444   0.309   8.522   9.274
   17        0.487   0.481   8.459   9.426
   18        0.486   0.478   8.464   9.427
   19        0.485   0.477   8.458   9.420
   20        0.486   0.478   8.461   9.425
   21        0.487   0.480   8.460   9.427
   22        0.485   0.478   8.460   9.423
   23        0.486   0.479   8.458   9.422
   24        0.485   0.479   8.458   9.423
   25        0.487   0.480   8.460   9.427
   26        0.486   0.479   8.460   9.424
   27        0.486   0.479   8.458   9.422
   28        0.485   0.479   8.458   9.423
   29        0.487   0.481   8.459   9.427
   30        0.486   0.478   8.464   9.427
   31        0.485   0.477   8.458   9.420
   32        0.486   0.479   8.461   9.425
   33        0.487   0.479   8.459   9.425
   34        0.488   0.476   8.465   9.429
   35        0.484   0.472   8.466   9.421
   36        0.486   0.478   8.460   9.425
   37        0.488   0.480   8.462   9.429
   38        0.480   0.469   8.471   9.420
   39        0.476   0.454   8.472   9.403
   40        0.485   0.476   8.463   9.423
   41        0.487   0.479   8.459   9.425
   42        0.488   0.476   8.466   9.429
   43        0.483   0.472   8.466   9.421
   44        0.487   0.478   8.460   9.426
   45        0.488   0.480   8.458   9.426
   46        0.485   0.477   8.459   9.421
   47        0.486   0.478   8.460   9.425
   48        0.487   0.480   8.458   9.425
   49        0.445   0.308   8.521   9.275
   50        0.444   0.307   8.522   9.273
   51        0.449   0.311   8.525   9.285
   52        0.448   0.309   8.523   9.280
   53        0.448   0.313   8.521   9.282
   54        0.448   0.312   8.528   9.287
   55        0.464   0.411   8.515   9.390
   56        0.445   0.335   8.549   9.329
   57        0.449   0.313   8.521   9.283
   58        0.447   0.312   8.528   9.287
   59        0.464   0.411   8.515   9.390
   60        0.446   0.335   8.550   9.330
   61        0.445   0.308   8.521   9.275
   62        0.445   0.308   8.522   9.274
   63        0.449   0.311   8.525   9.285
   64        0.448   0.310   8.523   9.281
   65        1.285   2.393   0.000   3.677
   66        1.631   3.432   0.000   5.062
   67        0.478   0.040   0.000   0.518
--------------------------------------------------
tot         33.231  31.256 543.526 608.013
 


 magnetization (x)
 
# of ion       s       p       d       tot
------------------------------------------
    1       -0.001  -0.003   0.218   0.213
    2       -0.001  -0.004   0.210   0.205
    3       -0.001  -0.003   0.213   0.209
    4       -0.001  -0.004   0.212   0.207
    5       -0.001  -0.004   0.202   0.197
    6       -0.001  -0.003   0.214   0.209
    7       -0.000  -0.003   0.218   0.214
    8       -0.001  -0.003   0.211   0.206
    9       -0.001  -0.003   0.218   0.213
   10       -0.001  -0.004   0.209   0.205
   11       -0.001  -0.003   0.213   0.209
   12       -0.001  -0.004   0.212   0.208
   13        0.001  -0.004   0.233   0.231
   14       -0.001  -0.003   0.213   0.209
   15       -0.001  -0.004   0.203   0.198
   16       -0.001  -0.003   0.225   0.221
   17       -0.002  -0.006   0.321   0.313
   18       -0.002  -0.006   0.306   0.299
   19       -0.002  -0.006   0.307   0.299
   20       -0.002  -0.006   0.308   0.300
   21       -0.002  -0.006   0.307   0.299
   22       -0.002  -0.006   0.303   0.296
   23       -0.002  -0.006   0.306   0.298
   24       -0.002  -0.006   0.307   0.299
   25       -0.002  -0.006   0.306   0.298
   26       -0.002  -0.006   0.303   0.296
   27       -0.002  -0.006   0.306   0.298
   28       -0.002  -0.006   0.307   0.299
   29       -0.002  -0.006   0.321   0.313
   30       -0.002  -0.006   0.306   0.298
   31       -0.002  -0.006   0.307   0.299
   32       -0.002  -0.006   0.309   0.301
   33       -0.002  -0.006   0.308   0.300
   34       -0.002  -0.006   0.261   0.253
   35       -0.002  -0.006   0.289   0.282
   36       -0.002  -0.006   0.294   0.286
   37       -0.002  -0.006   0.285   0.278
   38       -0.002  -0.005   0.283   0.276
   39       -0.001  -0.005   0.249   0.242
   40       -0.002  -0.006   0.291   0.284
   41       -0.002  -0.006   0.308   0.300
   42       -0.002  -0.006   0.262   0.254
   43       -0.002  -0.006   0.290   0.282
   44       -0.002  -0.006   0.294   0.286
   45       -0.001  -0.006   0.312   0.304
   46       -0.002  -0.006   0.299   0.292
   47       -0.002  -0.006   0.294   0.286
   48       -0.001  -0.006   0.315   0.307
   49       -0.001  -0.003   0.205   0.201
   50       -0.001  -0.003   0.208   0.204
   51       -0.001  -0.003   0.186   0.182
   52       -0.001  -0.003   0.205   0.201
   53       -0.001  -0.003   0.189   0.186
   54       -0.001  -0.003   0.193   0.189
   55       -0.002  -0.004   0.064   0.057
   56       -0.002  -0.003   0.140   0.135
   57       -0.001  -0.003   0.189   0.186
   58       -0.001  -0.003   0.192   0.189
   59       -0.002  -0.004   0.064   0.057
   60       -0.002  -0.004   0.138   0.133
   61       -0.001  -0.003   0.206   0.202
   62       -0.001  -0.003   0.208   0.204
   63       -0.001  -0.003   0.187   0.183
   64       -0.001  -0.003   0.205   0.201
   65       -0.000  -0.004   0.000  -0.005
   66       -0.000  -0.009   0.000  -0.009
   67       -0.001  -0.000   0.000  -0.001
--------------------------------------------------
tot         -0.084  -0.313  15.766  15.369
 

 total amount of memory used by VASP MPI-rank0   231468. kBytes
=======================================================================

   base      :      30000. kBytes
   nonlr-proj:      12607. kBytes
   fftplans  :       9506. kBytes
   grid      :      26507. kBytes
   one-center:        279. kBytes
   wavefun   :     152569. kBytes
 
  
  
 General timing and accounting informations for this job:
 ========================================================
  
                  Total CPU time used (sec):     2029.417
                            User time (sec):     2010.775
                          System time (sec):       18.641
                         Elapsed time (sec):     2042.687
  
                   Maximum memory used (kb):      461088.
                   Average memory used (kb):           0.
  
                          Minor page faults:       509733
                          Major page faults:           23
                 Voluntary context switches:        27318
