 vasp.5.4.4.18Apr17-6-g9f103f2a35 (build Jun 11 2020 13:42:08) complex          
  
 executed on             LinuxIFC date 2021.11.21  07:39:24
 running on   80 total cores
 each image running on   20 cores
 distrk:  each k-point on   20 cores,    1 groups
 distr:  one band on NCORES_PER_BAND=  10 cores,    2 groups


--------------------------------------------------------------------------------------------------------


 INCAR:
 POTCAR:    PAW_PBE Pd 04Jan2005                  
 POTCAR:    PAW_PBE N 08Apr2002                   
 POTCAR:    PAW_PBE O 08Apr2002                   

 ----------------------------------------------------------------------------- 
|                                                                             |
|           W    W    AA    RRRRR   N    N  II  N    N   GGGG   !!!           |
|           W    W   A  A   R    R  NN   N  II  NN   N  G    G  !!!           |
|           W    W  A    A  R    R  N N  N  II  N N  N  G       !!!           |
|           W WW W  AAAAAA  RRRRR   N  N N  II  N  N N  G  GGG   !            |
|           WW  WW  A    A  R   R   N   NN  II  N   NN  G    G                |
|           W    W  A    A  R    R  N    N  II  N    N   GGGG   !!!           |
|                                                                             |
|      For optimal performance we recommend to set                            |
|        NCORE= 4 - approx SQRT( number of cores)                             |
|      NCORE specifies how many cores store one orbital (NPAR=cpu/NCORE).     |
|      This setting can  greatly improve the performance of VASP for DFT.     |
|      The default,   NCORE=1            might be grossly inefficient         |
|      on modern multi-core architectures or massively parallel machines.     |
|      Do your own testing !!!!                                               |
|      Unfortunately you need to use the default for GW and RPA calculations. |
|      (for HF NCORE is supported but not extensively tested yet)             |
|                                                                             |
 ----------------------------------------------------------------------------- 

 POTCAR:    PAW_PBE Pd 04Jan2005                  
   VRHFIN =Pd : s1 d9                                                           
   LEXCH  = PE                                                                  
   EATOM  =   809.7530 eV,   59.5152 Ry                                         
                                                                                
   TITEL  = PAW_PBE Pd 04Jan2005                                                
   LULTRA =        F    use ultrasoft PP ?                                      
   IUNSCR =        1    unscreen: 0-lin 1-nonlin 2-no                           
   RPACOR =    2.000    partial core radius                                     
   POMASS =  106.420; ZVAL   =   10.000    mass and valenz                      
   RCORE  =    2.600    outmost cutoff radius                                   
   RWIGS  =    2.710; RWIGS  =    1.434    wigner-seitz radius (au A)           
   ENMAX  =  250.925; ENMIN  =  188.194 eV                                      
   ICORE  =        3    local potential                                         
   LCOR   =        T    correct aug charges                                     
   LPAW   =        T    paw PP                                                  
   EAUG   =  416.230                                                            
   DEXC   =    0.000                                                            
   RMAX   =    2.653    core radius for proj-oper                               
   RAUG   =    1.300    factor for augmentation sphere                          
   RDEP   =    2.734    radius for radial grids                                 
   RDEPT  =    2.103    core radius for aug-charge                              
                                                                                
   Atomic configuration                                                         
   12 entries                                                                   
     n  l   j            E        occ.                                          
     1  0  0.50    -24164.6631   2.0000                                         
     2  0  0.50     -3530.9218   2.0000                                         
     2  1  1.50     -3165.6822   6.0000                                         
     3  0  0.50      -639.4577   2.0000                                         
     3  1  1.50      -519.4532   6.0000                                         
     3  2  2.50      -328.9757  10.0000                                         
     4  0  0.50       -88.7014   2.0000                                         
     4  1  1.50       -54.4540   6.0000                                         
     4  2  2.50        -6.6878   9.0000                                         
     5  0  0.50        -4.3543   1.0000                                         
     5  1  0.50        -1.3606   0.0000                                         
     4  3  2.50        -1.3606   0.0000                                         
   Description                                                                  
     l       E           TYP  RCUT    TYP  RCUT                                 
     2     -6.6878251     23  2.400                                             
     2     -8.0484077     23  2.400                                             
     0     -4.3542939     23  2.400                                             
     0      4.3406793     23  2.400                                             
     1     -4.0817478     23  2.600                                             
     1     15.8380318     23  2.600                                             
     3     -4.0817478     23  2.400                                             
  local pseudopotential read in
  partial core-charges read in
  partial kinetic energy density read in
  atomic valenz-charges read in
  non local Contribution for L=           2  read in
    real space projection operators read in
  non local Contribution for L=           2  read in
    real space projection operators read in
  non local Contribution for L=           0  read in
    real space projection operators read in
  non local Contribution for L=           0  read in
    real space projection operators read in
  non local Contribution for L=           1  read in
    real space projection operators read in
  non local Contribution for L=           1  read in
    real space projection operators read in
    PAW grid and wavefunctions read in
 
   number of l-projection  operators is LMAX  =           6
   number of lm-projection operators is LMMAX =          18
 
 POTCAR:    PAW_PBE N 08Apr2002                   
   VRHFIN =N: s2p3                                                              
   LEXCH  = PE                                                                  
   EATOM  =   264.5486 eV,   19.4438 Ry                                         
                                                                                
   TITEL  = PAW_PBE N 08Apr2002                                                 
   LULTRA =        F    use ultrasoft PP ?                                      
   IUNSCR =        1    unscreen: 0-lin 1-nonlin 2-no                           
   RPACOR =    1.200    partial core radius                                     
   POMASS =   14.001; ZVAL   =    5.000    mass and valenz                      
   RCORE  =    1.500    outmost cutoff radius                                   
   RWIGS  =    1.400; RWIGS  =    0.741    wigner-seitz radius (au A)           
   ENMAX  =  400.000; ENMIN  =  300.000 eV                                      
   ICORE  =        2    local potential                                         
   LCOR   =        T    correct aug charges                                     
   LPAW   =        T    paw PP                                                  
   EAUG   =  627.112                                                            
   DEXC   =    0.000                                                            
   RMAX   =    1.529    core radius for proj-oper                               
   RAUG   =    1.300    factor for augmentation sphere                          
   RDEP   =    1.514    radius for radial grids                                 
   RDEPT  =    1.338    core radius for aug-charge                              
                                                                                
   Atomic configuration                                                         
    4 entries                                                                   
     n  l   j            E        occ.                                          
     1  0  0.50      -384.7179   2.0000                                         
     2  0  0.50       -18.5828   2.0000                                         
     2  1  0.50        -7.0898   3.0000                                         
     3  2  1.50        -6.8029   0.0000                                         
   Description                                                                  
     l       E           TYP  RCUT    TYP  RCUT                                 
     0    -18.5828119     23  1.200                                             
     0    -13.5018863     23  1.200                                             
     1     -7.0897853     23  1.500                                             
     1      9.5240782     23  1.500                                             
     2     -6.8029130      7  1.500                                             
  local pseudopotential read in
  partial core-charges read in
  partial kinetic energy density read in
  atomic valenz-charges read in
  non local Contribution for L=           0  read in
    real space projection operators read in
  non local Contribution for L=           0  read in
    real space projection operators read in
  non local Contribution for L=           1  read in
    real space projection operators read in
  non local Contribution for L=           1  read in
    real space projection operators read in
    PAW grid and wavefunctions read in
 
   number of l-projection  operators is LMAX  =           4
   number of lm-projection operators is LMMAX =           8
 
 POTCAR:    PAW_PBE O 08Apr2002                   
   VRHFIN =O: s2p4                                                              
   LEXCH  = PE                                                                  
   EATOM  =   432.3788 eV,   31.7789 Ry                                         
                                                                                
   TITEL  = PAW_PBE O 08Apr2002                                                 
   LULTRA =        F    use ultrasoft PP ?                                      
   IUNSCR =        1    unscreen: 0-lin 1-nonlin 2-no                           
   RPACOR =    1.200    partial core radius                                     
   POMASS =   16.000; ZVAL   =    6.000    mass and valenz                      
   RCORE  =    1.520    outmost cutoff radius                                   
   RWIGS  =    1.550; RWIGS  =    0.820    wigner-seitz radius (au A)           
   ENMAX  =  400.000; ENMIN  =  300.000 eV                                      
   ICORE  =        2    local potential                                         
   LCOR   =        T    correct aug charges                                     
   LPAW   =        T    paw PP                                                  
   EAUG   =  605.392                                                            
   DEXC   =    0.000                                                            
   RMAX   =    1.553    core radius for proj-oper                               
   RAUG   =    1.300    factor for augmentation sphere                          
   RDEP   =    1.550    radius for radial grids                                 
   RDEPT  =    1.329    core radius for aug-charge                              
                                                                                
   Atomic configuration                                                         
    4 entries                                                                   
     n  l   j            E        occ.                                          
     1  0  0.50      -514.6923   2.0000                                         
     2  0  0.50       -23.9615   2.0000                                         
     2  1  0.50        -9.0305   4.0000                                         
     3  2  1.50        -9.5241   0.0000                                         
   Description                                                                  
     l       E           TYP  RCUT    TYP  RCUT                                 
     0    -23.9615318     23  1.200                                             
     0     -9.5240782     23  1.200                                             
     1     -9.0304911     23  1.520                                             
     1      8.1634956     23  1.520                                             
     2     -9.5240782      7  1.500                                             
  local pseudopotential read in
  partial core-charges read in
  partial kinetic energy density read in
  kinetic energy density of atom read in
  atomic valenz-charges read in
  non local Contribution for L=           0  read in
    real space projection operators read in
  non local Contribution for L=           0  read in
    real space projection operators read in
  non local Contribution for L=           1  read in
    real space projection operators read in
  non local Contribution for L=           1  read in
    real space projection operators read in
    PAW grid and wavefunctions read in
 
   number of l-projection  operators is LMAX  =           4
   number of lm-projection operators is LMMAX =           8
 
 Optimization of the real space projectors (new method)

 maximal supplied QI-value         = 14.36
 optimisation between [QCUT,QGAM] = [ 10.20, 20.39] = [ 29.12,116.47] Ry 
 Optimized for a Real-space Cutoff    1.55 Angstroem

   l    n(q)    QCUT    max X(q) W(low)/X(q) W(high)/X(q)  e(spline) 
   2      9    10.197    59.108    0.12E-03    0.40E-04    0.11E-06
   2      9    10.197    58.101    0.12E-03    0.39E-04    0.12E-06
   0      9    10.197   102.235    0.41E-04    0.86E-05    0.83E-07
   0      9    10.197    58.388    0.37E-04    0.79E-05    0.78E-07
   1      9    10.197    22.191    0.25E-03    0.13E-03    0.84E-07
   1      9    10.197    15.590    0.21E-03    0.11E-03    0.74E-07
 Optimization of the real space projectors (new method)

 maximal supplied QI-value         = 25.13
 optimisation between [QCUT,QGAM] = [ 10.05, 20.36] = [ 28.30,116.06] Ry 
 Optimized for a Real-space Cutoff    1.70 Angstroem

   l    n(q)    QCUT    max X(q) W(low)/X(q) W(high)/X(q)  e(spline) 
   0     10    10.053    79.467    0.61E-04    0.98E-04    0.61E-06
   0     10    10.053    66.151    0.60E-04    0.98E-04    0.61E-06
   1     10    10.053     8.350    0.17E-03    0.71E-03    0.45E-05
   1     10    10.053     5.531    0.18E-03    0.77E-03    0.49E-05
 Optimization of the real space projectors (new method)

 maximal supplied QI-value         = 24.76
 optimisation between [QCUT,QGAM] = [ 10.15, 20.30] = [ 28.85,115.39] Ry 
 Optimized for a Real-space Cutoff    1.51 Angstroem

   l    n(q)    QCUT    max X(q) W(low)/X(q) W(high)/X(q)  e(spline) 
   0      9    10.150    20.381    0.17E-03    0.18E-03    0.41E-06
   0      9    10.150    15.268    0.18E-03    0.20E-03    0.43E-06
   1      9    10.150     5.964    0.16E-03    0.20E-03    0.36E-06
   1      9    10.150     5.382    0.13E-03    0.16E-03    0.33E-06
  PAW_PBE Pd 04Jan2005                  :
 energy of atom  1       EATOM= -809.7530
 kinetic energy error for atom=    0.0091 (will be added to EATOM!!)
  PAW_PBE N 08Apr2002                   :
 energy of atom  2       EATOM= -264.5486
 kinetic energy error for atom=    0.0736 (will be added to EATOM!!)
  PAW_PBE O 08Apr2002                   :
 energy of atom  3       EATOM= -432.3788
 kinetic energy error for atom=    0.1156 (will be added to EATOM!!)
 
 
 POSCAR: Pd N O                                  
  positions in direct lattice
  velocities in cartesian coordinates
 exchange correlation table for  LEXCH =        8
   RHO(1)=    0.500       N(1)  =     2000
   RHO(2)=  100.500       N(2)  =     4000

 VTST: version 3.1, (03/28/14)

 CHAIN: initializing optimizer
 
 OPT: Using VASP QUASI-newton optimizer
 CHAIN: Read ICHAIN            0
 CHAIN: Running the NEB
 NEB:          SPRING     -5.000000
 NEB:          LCLIMB      T
 NEB:     LTANGENTOLD      F
 NEB:           LDNEB      F
 NEB:        LDNEBORG      F
 NEB:        LNEBCELL      F
 NEB:          EFIRST   -350.864990
 NEB:           ELAST   -350.889913
 
 POSCAR: Pd N O                                  
  positions in direct lattice
  No initial velocities read in
 
 POSCAR: Pd N O                                  
  positions in direct lattice
  No initial velocities read in
 


--------------------------------------------------------------------------------------------------------


 ion  position               nearest neighbor table
   1  0.125  0.125  0.403-  13 2.75   4 2.75   2 2.75   5 2.75  21 2.75  18 2.75  17 2.75  22 2.76

   2  0.125  0.375  0.403-  14 2.75   3 2.75   1 2.75   6 2.75  19 2.75  18 2.75  23 2.75  22 2.76

   3  0.125  0.625  0.403-  15 2.75   4 2.75   2 2.75   7 2.75  24 2.75  19 2.75  20 2.75  23 2.75

   4  0.125  0.875  0.403-  16 2.75   3 2.75   1 2.75   8 2.75  21 2.75  24 2.75  17 2.75  20 2.75

   5  0.375  0.125  0.403-   8 2.75   1 2.75   6 2.75   9 2.75  21 2.75  22 2.75  25 2.76  26 2.76

   6  0.375  0.375  0.403-   2 2.75   7 2.75   5 2.75  10 2.75  23 2.75  22 2.75  27 2.76  26 2.76

   7  0.375  0.625  0.403-   8 2.75   3 2.75   6 2.75  11 2.75  24 2.75  23 2.75  28 2.76  27 2.76

   8  0.375  0.875  0.403-   7 2.75   5 2.75   4 2.75  12 2.75  24 2.75  21 2.75  25 2.76  28 2.76

   9  0.625  0.125  0.403-  12 2.75  13 2.75  10 2.75   5 2.75  30 2.75  29 2.75  25 2.75  26 2.76

  10  0.625  0.375  0.403-  14 2.75  11 2.75   9 2.75   6 2.75  31 2.75  30 2.75  27 2.76  26 2.76

  11  0.625  0.625  0.403-  12 2.75  15 2.75  10 2.75   7 2.75  31 2.75  32 2.75  28 2.75  27 2.76

  12  0.625  0.875  0.403-  11 2.75   9 2.75  16 2.75   8 2.75  29 2.75  32 2.75  25 2.76  28 2.76

  13  0.875  0.125  0.403-   1 2.75   9 2.75  14 2.75  16 2.75  18 2.75  29 2.75  17 2.75  30 2.76

  14  0.875  0.375  0.403-   2 2.75  10 2.75  15 2.75  13 2.75  19 2.75  18 2.75  31 2.76  30 2.76

  15  0.875  0.625  0.403-   3 2.75  11 2.75  16 2.75  14 2.75  19 2.75  20 2.75  31 2.75  32 2.76

  16  0.875  0.875  0.403-   4 2.75  12 2.75  15 2.75  13 2.75  29 2.75  17 2.75  32 2.75  20 2.75

  17  0.000  0.000  0.468-  18 2.74  21 2.75  20 2.75  36 2.75  29 2.75  45 2.75  48 2.75   1 2.75
                            13 2.75   4 2.75  16 2.75  33 2.76
  18  1.000  0.250  0.468-  17 2.74  46 2.75  19 2.75  34 2.75  22 2.75  30 2.75  45 2.75  13 2.75
                             1 2.75  14 2.75   2 2.75  33 2.75
  19  1.000  0.500  0.468-  20 2.74  18 2.75  46 2.75  23 2.75  34 2.75  31 2.75  47 2.75  15 2.75
                             3 2.75  14 2.75   2 2.75  35 2.75
  20  1.000  0.750  0.468-  19 2.74  17 2.75  24 2.75  36 2.75  32 2.75  47 2.75  48 2.75   3 2.75
                            15 2.75   4 2.75  16 2.75  35 2.76
  21  0.250  0.000  0.468-  22 2.74  17 2.75  24 2.75  25 2.75  36 2.75  40 2.75   5 2.75   8 2.75
                             1 2.75   4 2.75  33 2.75  37 2.76
  22  0.250  0.250  0.468-  21 2.74  26 2.74  33 2.75  18 2.75  23 2.75  34 2.75  38 2.75   5 2.75
                             6 2.75  37 2.76   1 2.76   2 2.76
  23  0.250  0.500  0.468-  27 2.74  24 2.74  35 2.75  19 2.75  22 2.75  34 2.75  38 2.75   7 2.75
                             6 2.75   3 2.75   2 2.75  39 2.76
  24  0.250  0.750  0.468-  23 2.74  21 2.75  20 2.75  28 2.75  36 2.75  40 2.75   7 2.75   8 2.75
                             3 2.75   4 2.75  35 2.75  39 2.76
  25  0.500  0.000  0.468-  29 2.74  26 2.74  37 2.75  40 2.75  21 2.75  44 2.75  28 2.75   9 2.75
                             5 2.76  12 2.76   8 2.76  41 2.76
  26  0.500  0.250  0.468-  38 2.74  30 2.74  27 2.74  25 2.74  22 2.74  37 2.75  42 2.75  41 2.75
                            10 2.76   6 2.76   9 2.76   5 2.76
  27  0.500  0.500  0.468-  31 2.74  38 2.74  26 2.74  28 2.74  23 2.74  39 2.75  42 2.75  43 2.75
                            10 2.76   6 2.76  11 2.76   7 2.76
  28  0.500  0.750  0.468-  32 2.74  27 2.74  39 2.75  40 2.75  24 2.75  44 2.75  25 2.75  11 2.75
                             7 2.76  12 2.76   8 2.76  43 2.76
  29  0.750  1.000  0.468-  25 2.74  30 2.74  32 2.74  17 2.75  45 2.75  48 2.75  44 2.75  12 2.75
                             9 2.75  16 2.75  13 2.75  41 2.78
  30  0.750  0.250  0.468-  26 2.74  29 2.74  45 2.75  42 2.75  18 2.75  46 2.75   9 2.75  31 2.75
                            10 2.75  13 2.76  14 2.76  41 2.76
  31  0.750  0.500  0.468-  27 2.74  32 2.74  47 2.75  42 2.75  19 2.75  46 2.75  11 2.75  30 2.75
                            10 2.75  15 2.75  14 2.76  43 2.76
  32  0.750  0.750  0.468-  28 2.74  31 2.74  29 2.74  20 2.75  47 2.75  48 2.75  44 2.75  12 2.75
                            11 2.75  16 2.75  15 2.76  43 2.78
  33  0.126  0.125  0.533-  34 2.74  37 2.74  22 2.75  36 2.75  54 2.75  50 2.75  49 2.75  18 2.75
                            21 2.75  45 2.75  53 2.76  17 2.76
  34  0.125  0.375  0.533-  35 2.74  33 2.74  46 2.74  18 2.75  19 2.75  22 2.75  23 2.75  38 2.75
                            51 2.76  50 2.76  54 2.76  55 2.76
  35  0.126  0.624  0.533-  34 2.74  39 2.74  23 2.75  55 2.75  51 2.75  36 2.75  56 2.75  47 2.75
                            19 2.75  24 2.75  52 2.76  20 2.76
  36  0.125  0.875  0.533-  40 2.75  48 2.75  17 2.75  20 2.75  21 2.75  24 2.75  33 2.75  35 2.75
                            49 2.75  56 2.75  52 2.75  53 2.76
  37  0.375  0.125  0.533-  41 2.73  40 2.74  33 2.74  25 2.75  38 2.75  26 2.75  22 2.76  53 2.76
                            21 2.76  57 2.76  54 2.77  58 2.81
  38  0.376  0.375  0.533-  26 2.74  27 2.74  42 2.75  39 2.75  37 2.75  22 2.75  23 2.75  34 2.75
                            54 2.78  55 2.78  59 2.83  58 2.83
  39  0.375  0.625  0.533-  43 2.73  35 2.74  40 2.74  28 2.75  38 2.75  27 2.75  56 2.75  23 2.76
                            24 2.76  60 2.76  55 2.77  59 2.81
  40  0.375  0.875  0.533-  37 2.74  39 2.74  36 2.75  44 2.75  28 2.75  25 2.75  21 2.75  24 2.75
                            56 2.75  53 2.76  57 2.76  60 2.76
  41  0.624  0.126  0.534-  37 2.73  42 2.73  57 2.75  62 2.75  26 2.75  45 2.76  61 2.76  44 2.76
                            25 2.76  30 2.76  58 2.77  29 2.78
  42  0.626  0.375  0.533-  43 2.73  41 2.73  46 2.74  38 2.75  30 2.75  31 2.75  27 2.75  26 2.75
                            62 2.76  63 2.76  59 2.82  58 2.82
  43  0.624  0.624  0.534-  39 2.73  42 2.73  60 2.75  63 2.75  64 2.75  27 2.75  47 2.76  44 2.76
                            28 2.76  31 2.76  59 2.77  32 2.78
  44  0.625  0.875  0.533-  48 2.74  40 2.75  25 2.75  28 2.75  32 2.75  29 2.75  64 2.75  57 2.76
                            61 2.76  60 2.76  41 2.76  43 2.76
  45  0.875  0.125  0.533-  48 2.74  46 2.75  30 2.75  62 2.75  29 2.75  17 2.75  18 2.75  33 2.75
                            49 2.76  41 2.76  61 2.76  50 2.76
  46  0.875  0.375  0.533-  42 2.74  34 2.74  47 2.75  18 2.75  45 2.75  19 2.75  30 2.75  31 2.75
                            62 2.75  63 2.75  50 2.76  51 2.76
  47  0.875  0.625  0.533-  48 2.75  46 2.75  31 2.75  20 2.75  32 2.75  63 2.75  19 2.75  35 2.75
                            64 2.76  52 2.76  43 2.76  51 2.76
  48  0.875  0.875  0.533-  45 2.74  44 2.74  47 2.75  36 2.75  17 2.75  20 2.75  32 2.75  29 2.75
                            64 2.75  49 2.75  52 2.75  61 2.76
  49  0.000  0.000  0.598-  53 2.74  61 2.74  50 2.75  52 2.75  33 2.75  36 2.75  48 2.75  45 2.76

  50  0.000  0.250  0.598-  62 2.73  54 2.73  51 2.74  49 2.75  33 2.75  34 2.76  46 2.76  45 2.76

  51  0.000  0.500  0.598-  63 2.73  55 2.73  50 2.74  52 2.75  35 2.75  34 2.76  46 2.76  47 2.76

  52  0.000  0.750  0.598-  56 2.74  64 2.74  51 2.75  49 2.75  36 2.75  48 2.75  47 2.76  35 2.76

  53  0.250  1.000  0.598-  56 2.74  49 2.74  57 2.74  54 2.75  37 2.76  33 2.76  40 2.76  36 2.76

  54  0.249  0.250  0.599-  50 2.73  55 2.74  33 2.75  53 2.75  34 2.76  58 2.76  37 2.77  38 2.78

  55  0.249  0.500  0.599-  51 2.73  54 2.74  56 2.75  35 2.75  59 2.76  34 2.76  39 2.77  38 2.78

  56  0.250  0.750  0.598-  53 2.74  52 2.74  60 2.74  55 2.75  35 2.75  39 2.75  40 2.75  36 2.75

  57  0.500  0.999  0.598-  60 2.73  58 2.74  53 2.74  41 2.75  61 2.75  44 2.76  37 2.76  40 2.76

  58  0.501  0.248  0.601-  65 2.02  57 2.74  62 2.76  54 2.76  41 2.77  59 2.78  37 2.81  42 2.82
                            38 2.83
  59  0.501  0.502  0.601-  65 2.02  60 2.74  55 2.76  63 2.76  43 2.77  58 2.78  39 2.81  42 2.82
                            38 2.83
  60  0.500  0.751  0.598-  57 2.73  59 2.74  56 2.74  43 2.75  64 2.75  44 2.76  39 2.76  40 2.76

  61  0.750  1.000  0.598-  64 2.74  49 2.74  62 2.75  57 2.75  48 2.76  41 2.76  44 2.76  45 2.76

  62  0.752  0.250  0.598-  50 2.73  63 2.75  41 2.75  61 2.75  45 2.75  46 2.75  58 2.76  42 2.76

  63  0.752  0.500  0.598-  51 2.73  62 2.75  64 2.75  47 2.75  43 2.75  46 2.75  42 2.76  59 2.76

  64  0.750  0.750  0.598-  61 2.74  52 2.74  63 2.75  60 2.75  48 2.75  43 2.75  44 2.75  47 2.76

  65  0.426  0.375  0.641-  66 1.21  58 2.02  59 2.02
  66  0.432  0.374  0.681-  65 1.21
 
  LATTYP: Found a simple tetragonal cell.
 ALAT       =    10.9820000000
 C/A-ratio  =     2.7317428519
  
  Lattice vectors:
  
 A1 = (  10.9820000000,   0.0000000000,   0.0000000000)
 A2 = (   0.0000000000,  10.9820000000,   0.0000000000)
 A3 = (   0.0000000000,   0.0000000000,  30.0000000000)


Analysis of symmetry for initial positions (statically):
=====================================================================
 Subroutine PRICEL returns:
 Original cell was already a primitive cell.
 

 Routine SETGRP: Setting up the symmetry group for a 
 simple tetragonal supercell.


 Subroutine GETGRP returns: Found  1 space group operations
 (whereof  1 operations were pure point group operations)
 out of a pool of 16 trial point group operations.


The static configuration has the point symmetry C_1 .


Analysis of symmetry for dynamics (positions and initial velocities):
=====================================================================
 Subroutine PRICEL returns:
 Original cell was already a primitive cell.
 

 Routine SETGRP: Setting up the symmetry group for a 
 simple tetragonal supercell.


 Subroutine GETGRP returns: Found  1 space group operations
 (whereof  1 operations were pure point group operations)
 out of a pool of 16 trial point group operations.


The dynamic configuration has the point symmetry C_1 .


Analysis of constrained symmetry for selective dynamics:
=====================================================================
 Subroutine PRICEL returns:
 Original cell was already a primitive cell.
 

 Routine SETGRP: Setting up the symmetry group for a 
 simple tetragonal supercell.


 Subroutine GETGRP returns: Found  1 space group operations
 (whereof  1 operations were pure point group operations)
 out of a pool of 16 trial point group operations.


The constrained configuration has the point symmetry C_1 .


Analysis of structural, dynamic, and magnetic symmetry:
=====================================================================
 Subroutine PRICEL returns:
 Original cell was already a primitive cell.
 

 Routine SETGRP: Setting up the symmetry group for a 
 simple tetragonal supercell.


 Subroutine GETGRP returns: Found  1 space group operations
 (whereof  1 operations were pure point group operations)
 out of a pool of 16 trial point group operations.


The magnetic configuration has the point symmetry C_1 .


 Subroutine INISYM returns: Found  1 space group operations
 (whereof  1 operations are pure point group operations),
 and found     1 'primitive' translations

 
 
 KPOINTS: K-Point Grid                            

Automatic generation of k-mesh.
Space group operators:
 irot       det(A)        alpha          n_x          n_y          n_z        tau_x        tau_y        tau_z
    1     1.000000     0.000001     1.000000     0.000000     0.000000     0.000000     0.000000     0.000000
 
 Subroutine IBZKPT returns following result:
 ===========================================
 
 Found      8 irreducible k-points:
 
 Following reciprocal coordinates:
            Coordinates               Weight
  0.125000  0.125000  0.000000      2.000000
  0.375000  0.125000  0.000000      2.000000
 -0.375000  0.125000  0.000000      2.000000
 -0.125000  0.125000  0.000000      2.000000
  0.125000  0.375000  0.000000      2.000000
  0.375000  0.375000  0.000000      2.000000
 -0.375000  0.375000  0.000000      2.000000
 -0.125000  0.375000  0.000000      2.000000
 
 Following cartesian coordinates:
            Coordinates               Weight
  0.011382  0.011382  0.000000      2.000000
  0.034147  0.011382  0.000000      2.000000
 -0.034147  0.011382  0.000000      2.000000
 -0.011382  0.011382  0.000000      2.000000
  0.011382  0.034147  0.000000      2.000000
  0.034147  0.034147  0.000000      2.000000
 -0.034147  0.034147  0.000000      2.000000
 -0.011382  0.034147  0.000000      2.000000
 


--------------------------------------------------------------------------------------------------------




 Dimension of arrays:
   k-points           NKPTS =      8   k-points in BZ     NKDIM =      8   number of bands    NBANDS=    424
   number of dos      NEDOS =   1200   number of ions     NIONS =     66
   non local maximal  LDIM  =      6   non local SUM 2l+1 LMDIM =     18
   total plane-waves  NPLWV = ******
   max r-space proj   IRMAX =   5807   max aug-charges    IRDMAX=  13820
   dimension x,y,z NGX =    72 NGY =   72 NGZ =  196
   dimension x,y,z NGXF=   144 NGYF=  144 NGZF=  392
   support grid    NGXF=   144 NGYF=  144 NGZF=  392
   ions per type =              64   1   1
   NGX,Y,Z   is equivalent  to a cutoff of  10.90, 10.90, 10.86 a.u.
   NGXF,Y,Z  is equivalent  to a cutoff of  21.80, 21.80, 21.72 a.u.

 SYSTEM =  Pd_111_surface                          
 POSCAR =  Pd N O                                  

 Startparameter for this run:
   NWRITE =      2    write-flag & timer
   PREC   = accura    normal or accurate (medium, high low for compatibility)
   ISTART =      0    job   : 0-new  1-cont  2-samecut
   ICHARG =      2    charge: 1-file 2-atom 10-const
   ISPIN  =      2    spin polarized calculation?
   LNONCOLLINEAR =      F non collinear calculations
   LSORBIT =      F    spin-orbit coupling
   INIWAV =      1    electr: 0-lowe 1-rand  2-diag
   LASPH  =      F    aspherical Exc in radial PAW
   METAGGA=      F    non-selfconsistent MetaGGA calc.

 Electronic Relaxation 1
   ENCUT  =  400.0 eV  29.40 Ry    5.42 a.u.  17.91 17.91 48.92*2*pi/ulx,y,z
   ENINI  =  400.0     initial cutoff
   ENAUG  =  627.1 eV  augmentation charge cutoff
   NELM   =    100;   NELMIN=  2; NELMDL= -5     # of ELM steps 
   EDIFF  = 0.1E-04   stopping-criterion for ELM
   LREAL  =      T    real-space projection
   NLSPLINE    = F    spline interpolate recip. space projectors
   LCOMPAT=      F    compatible to vasp.4.4
   GGA_COMPAT  = T    GGA compatible to vasp.4.4-vasp.4.6
   LMAXPAW     = -100 max onsite density
   LMAXMIX     =    2 max onsite mixed and CHGCAR
   VOSKOWN=      0    Vosko Wilk Nusair interpolation
   ROPT   =   -0.00025  -0.00025  -0.00025
 Ionic relaxation
   EDIFFG = -.2E-01   stopping-criterion for IOM
   NSW    =   1000    number of steps for IOM
   NBLOCK =      1;   KBLOCK =   1000    inner block; outer block 
   IBRION =      1    ionic relax: 0-MD 1-quasi-New 2-CG
   NFREE  =      0    steps in history (QN), initial steepest desc. (CG)
   ISIF   =      2    stress and relaxation
   IWAVPR =     11    prediction:  0-non 1-charg 2-wave 3-comb
   ISYM   =      2    0-nonsym 1-usesym 2-fastsym
   LCORR  =      T    Harris-Foulkes like correction to forces

   POTIM  = 0.3000    time-step for ionic-motion
   TEIN   =    0.0    initial temperature
   TEBEG  =    0.0;   TEEND  =   0.0 temperature during run
   SMASS  =  -3.00    Nose mass-parameter (am)
   estimated Nose-frequenzy (Omega)   =  0.10E-29 period in steps =****** mass=  -0.276E-26a.u.
   SCALEE = 1.0000    scale energy and forces
   NPACO  =    256;   APACO  = 16.0  distance and # of slots for P.C.
   PSTRESS=    0.0 pullay stress

  Mass of Ions in am
   POMASS = 106.42 14.00 16.00
  Ionic Valenz
   ZVAL   =  10.00  5.00  6.00
  Atomic Wigner-Seitz radii
   RWIGS  =  -1.00 -1.00 -1.00
  virtual crystal weights 
   VCA    =   1.00  1.00  1.00
   NELECT =     651.0000    total number of electrons
   NUPDOWN=      -1.0000    fix difference up-down

 DOS related values:
   EMIN   =  10.00;   EMAX   =-10.00  energy-range for DOS
   EFERMI =   0.00
   ISMEAR =     1;   SIGMA  =   0.20  broadening in eV -4-tet -1-fermi 0-gaus

 Electronic relaxation 2 (details)
   IALGO  =     68    algorithm
   LDIAG  =      T    sub-space diagonalisation (order eigenvalues)
   LSUBROT=      F    optimize rotation matrix (better conditioning)
   TURBO    =      0    0=normal 1=particle mesh
   IRESTART =      0    0=no restart 2=restart with 2 vectors
   NREBOOT  =      0    no. of reboots
   NMIN     =      0    reboot dimension
   EREF     =   0.00    reference energy to select bands
   IMIX   =      4    mixing-type and parameters
     AMIX     =   0.40;   BMIX     =  1.00
     AMIX_MAG =   1.60;   BMIX_MAG =  1.00
     AMIN     =   0.10
     WC   =   100.;   INIMIX=   1;  MIXPRE=   1;  MAXMIX= -45

 Intra band minimization:
   WEIMIN = 0.0010     energy-eigenvalue tresh-hold
   EBREAK =  0.59E-08  absolut break condition
   DEPER  =   0.30     relativ break condition  

   TIME   =   0.40     timestep for ELM

  volume/ion in A,a.u.               =      54.82       369.94
  Fermi-wavevector in a.u.,A,eV,Ry     =   0.924217  1.746516 11.621775  0.854176
  Thomas-Fermi vector in A             =   2.049938
 
 Write flags
   LWAVE        =      F    write WAVECAR
   LDOWNSAMPLE  =      F    k-point downsampling of WAVECAR
   LCHARG       =      F    write CHGCAR
   LVTOT        =      F    write LOCPOT, total local potential
   LVHAR        =      F    write LOCPOT, Hartree potential only
   LELF         =      F    write electronic localiz. function (ELF)
   LORBIT       =     11    0 simple, 1 ext, 2 COOP (PROOUT), +10 PAW based schemes


 Dipole corrections
   LMONO  =      F    monopole corrections only (constant potential shift)
   LDIPOL =      T    correct potential (dipole corrections)
   IDIPOL =      3    1-x, 2-y, 3-z, 4-all directions 
   EPSILON=  1.0000000 bulk dielectric constant

 Exchange correlation treatment:
   GGA     =    --    GGA type
   LEXCH   =     8    internal setting for exchange type
   VOSKOWN=      0    Vosko Wilk Nusair interpolation
   LHFCALC =     F    Hartree Fock is set to
   LHFONE  =     F    Hartree Fock one center treatment
   AEXX    =    0.0000 exact exchange contribution

 Linear response parameters
   LEPSILON=     F    determine dielectric tensor
   LRPA    =     F    only Hartree local field effects (RPA)
   LNABLA  =     F    use nabla operator in PAW spheres
   LVEL    =     F    velocity operator in full k-point grid
   LINTERFAST=   F  fast interpolation
   KINTER  =     0    interpolate to denser k-point grid
   CSHIFT  =0.1000    complex shift for real part using Kramers Kronig
   OMEGAMAX=  -1.0    maximum frequency
   DEG_THRESHOLD= 0.2000000E-02 threshold for treating states as degnerate
   RTIME   =   -0.100 relaxation time in fs
  (WPLASMAI=    0.000 imaginary part of plasma frequency in eV, 0.658/RTIME)
   DFIELD  = 0.0000000 0.0000000 0.0000000 field for delta impulse in time
 
 Orbital magnetization related:
   ORBITALMAG=     F  switch on orbital magnetization
   LCHIMAG   =     F  perturbation theory with respect to B field
   DQ        =  0.001000  dq finite difference perturbation B field
   LLRAUG    =     F  two centre corrections for induced B field



--------------------------------------------------------------------------------------------------------


 quasi-Newton-method for relaxation of ions
   using selective dynamics as specified on POSCAR
 charge density and potential will be updated during run
 spin polarized calculation
 RMM-DIIS sequential band-by-band and
  variant of blocked Davidson during initial phase
 perform sub-space diagonalisation
    before iterative eigenvector-optimisation
 modified Broyden-mixing scheme, WC =      100.0
 initial mixing is a Kerker type mixing with AMIX =  0.4000 and BMIX =      1.0000
 Hartree-type preconditioning will be used
 using additional bands           98
 real space projection scheme for non local part
 use partial core corrections
 calculate Harris-corrections to forces 
   (improved forces if not selfconsistent)
 use gradient corrections 
 use of overlap-Matrix (Vanderbilt PP)
 Methfessel and Paxton  Order N= 1 SIGMA  =   0.20


--------------------------------------------------------------------------------------------------------


  energy-cutoff  :      400.00
  volume of cell :     3618.13
      direct lattice vectors                 reciprocal lattice vectors
    10.982000000  0.000000000  0.000000000     0.091058095  0.000000000  0.000000000
     0.000000000 10.982000000  0.000000000     0.000000000  0.091058095  0.000000000
     0.000000000  0.000000000 30.000000000     0.000000000  0.000000000  0.033333333

  length of vectors
    10.982000000 10.982000000 30.000000000     0.091058095  0.091058095  0.033333333


 
 k-points in units of 2pi/SCALE and weight: K-Point Grid                            
   0.01138226  0.01138226  0.00000000       0.125
   0.03414679  0.01138226  0.00000000       0.125
  -0.03414679  0.01138226  0.00000000       0.125
  -0.01138226  0.01138226  0.00000000       0.125
   0.01138226  0.03414679  0.00000000       0.125
   0.03414679  0.03414679  0.00000000       0.125
  -0.03414679  0.03414679  0.00000000       0.125
  -0.01138226  0.03414679  0.00000000       0.125
 
 k-points in reciprocal lattice and weights: K-Point Grid                            
   0.12500000  0.12500000  0.00000000       0.125
   0.37500000  0.12500000  0.00000000       0.125
  -0.37500000  0.12500000  0.00000000       0.125
  -0.12500000  0.12500000  0.00000000       0.125
   0.12500000  0.37500000  0.00000000       0.125
   0.37500000  0.37500000  0.00000000       0.125
  -0.37500000  0.37500000  0.00000000       0.125
  -0.12500000  0.37500000  0.00000000       0.125
 
 position of ions in fractional coordinates (direct lattice) 
   0.12497124  0.12499694  0.40289705
   0.12496960  0.37499866  0.40289713
   0.12497143  0.62500035  0.40289706
   0.12497290  0.87499678  0.40289672
   0.37497347  0.12498859  0.40287906
   0.37497203  0.37499869  0.40287751
   0.37497352  0.62500859  0.40287916
   0.37497602  0.87499669  0.40288281
   0.62501025  0.12499082  0.40288223
   0.62501064  0.37499867  0.40288170
   0.62501022  0.62500646  0.40288222
   0.62500974  0.87499677  0.40288454
   0.87500545  0.12499855  0.40289914
   0.87500380  0.37499866  0.40290025
   0.87500553  0.62499872  0.40289912
   0.87500692  0.87499683  0.40289851
   0.00001207  0.00002261  0.46802871
   0.99997555  0.24989601  0.46796699
   0.99994629  0.50006693  0.46792227
   0.99999949  0.74994930  0.46803882
   0.25003104  0.00000060  0.46790302
   0.25020885  0.24981331  0.46804437
   0.25016362  0.50005496  0.46798664
   0.25007308  0.74995980  0.46788881
   0.50033726  0.00036406  0.46816485
   0.50003316  0.25013463  0.46820949
   0.50002837  0.49981235  0.46816488
   0.50032395  0.74963331  0.46818988
   0.74986449  0.99998396  0.46796309
   0.74956641  0.24968611  0.46806395
   0.74959812  0.50031803  0.46802529
   0.74979848  0.75005323  0.46800866
   0.12563258  0.12546581  0.53308506
   0.12489073  0.37499975  0.53276266
   0.12564333  0.62444310  0.53303587
   0.12503472  0.87501452  0.53280183
   0.37535248  0.12468893  0.53313657
   0.37557223  0.37496706  0.53283538
   0.37536947  0.62512766  0.53310090
   0.37504409  0.87500450  0.53283448
   0.62386573  0.12623515  0.53387413
   0.62566486  0.37506987  0.53311864
   0.62383502  0.62369931  0.53385330
   0.62509378  0.87507952  0.53305660
   0.87478332  0.12485187  0.53287604
   0.87512768  0.37501409  0.53275881
   0.87484690  0.62505490  0.53285790
   0.87494039  0.87505988  0.53291846
   0.00028487  0.00002965  0.59796472
   0.00025800  0.25008707  0.59811778
   0.00048178  0.49992414  0.59812189
   0.00019957  0.74994153  0.59797471
   0.25000854  0.99953578  0.59818467
   0.24896963  0.25012812  0.59857894
   0.24899277  0.49991903  0.59858194
   0.24998406  0.75040662  0.59804536
   0.49983656  0.99920260  0.59840460
   0.50062978  0.24818820  0.60103756
   0.50053519  0.50150864  0.60103401
   0.49978900  0.75065718  0.59839022
   0.75048358  0.99976147  0.59829590
   0.75189633  0.25001366  0.59822297
   0.75205883  0.50002053  0.59827792
   0.75037144  0.75025735  0.59811490
   0.42606453  0.37467777  0.64134968
   0.43193279  0.37444260  0.68149672
 
 position of ions in cartesian coordinates  (Angst):
   1.37243415  1.37271639 12.08691140
   1.37241614  4.11823533 12.08691399
   1.37243624  6.86375380 12.08691180
   1.37245234  9.60921469 12.08690163
   4.11795863  1.37262473 12.08637188
   4.11794281  4.11823563 12.08632538
   4.11795923  6.86384435 12.08637480
   4.11798670  9.60921360 12.08648431
   6.86386255  1.37264922 12.08646697
   6.86386684  4.11823539 12.08645085
   6.86386223  6.86382099 12.08646654
   6.86385696  9.60921450 12.08653633
   9.60930989  1.37273406 12.08697421
   9.60929172  4.11823531 12.08700737
   9.60931070  6.86373600 12.08697359
   9.60932601  9.60921516 12.08695524
   0.00013251  0.00024834 14.04086116
  10.98173150  2.74435801 14.03900966
  10.98141017  5.49173507 14.03766816
  10.98199436  8.23594318 14.04116463
   2.74584085  0.00000655 14.03709053
   2.74779358  2.74344979 14.04133115
   2.74729691  5.49160359 14.03959912
   2.74630251  8.23605855 14.03666428
   5.49470377  0.00399815 14.04494563
   5.49136413  2.74697850 14.04628484
   5.49131152  5.48893923 14.04494632
   5.49455763  8.23247301 14.04569645
   8.23501181 10.98182383 14.03889282
   8.23173830  2.74205282 14.04191864
   8.23208660  5.49449265 14.04075880
   8.23428689  8.23708461 14.04025971
   1.37969700  1.37786555 15.99255188
   1.37155005  4.11824723 15.98287992
   1.37981507  6.85763417 15.99107604
   1.37313133  9.60940947 15.98405498
   4.12212094  1.36933382 15.99409701
   4.12453421  4.11788824 15.98506148
   4.12230751  6.86515192 15.99302691
   4.11873420  9.60929937 15.98503442
   6.85129350  1.38631441 16.01622397
   6.87105148  4.11901726 15.99355911
   6.85095622  6.84946581 16.01559894
   6.86477988  9.61012327 15.99169803
   9.60687044  1.37112319 15.98628114
   9.61065219  4.11840470 15.98276429
   9.60756862  6.86435292 15.98573690
   9.60859538  9.60990760 15.98755382
   0.00312846  0.00032559 17.93894173
   0.00283332  2.74645624 17.94353335
   0.00529093  5.49016686 17.94365658
   0.00219173  8.23585793 17.93924137
   2.74559378 10.97690189 17.94554015
   2.73418448  2.74690700 17.95736817
   2.73443864  5.49011079 17.95745811
   2.74532494  8.24096548 17.94136081
   5.48920510 10.97324291 17.95213791
   5.49791627  2.72560278 18.03112685
   5.49687745  5.50756783 18.03102016
   5.48868276  8.24371717 17.95170658
   8.24181066 10.97938042 17.94887699
   8.25732547  2.74564997 17.94668922
   8.25911010  5.49122551 17.94833758
   8.24057919  8.23932619 17.94344698
   4.67904065  4.11471132 19.24049048
   4.74348587  4.11212858 20.44490170
 


--------------------------------------------------------------------------------------------------------


 k-point  1 :   0.1250 0.1250 0.0000  plane waves:   65671
 k-point  2 :   0.3750 0.1250 0.0000  plane waves:   65719
 k-point  3 :  -0.3750 0.1250 0.0000  plane waves:   65719
 k-point  4 :  -0.1250 0.1250 0.0000  plane waves:   65671
 k-point  5 :   0.1250 0.3750 0.0000  plane waves:   65719
 k-point  6 :   0.3750 0.3750 0.0000  plane waves:   65776
 k-point  7 :  -0.3750 0.3750 0.0000  plane waves:   65776
 k-point  8 :  -0.1250 0.3750 0.0000  plane waves:   65719

 maximum and minimum number of plane-waves per node :      6612     6539

 maximum number of plane-waves:     65776
 maximum index in each direction: 
   IXMAX=   18   IYMAX=   17   IZMAX=   48
   IXMIN=  -18   IYMIN=  -18   IZMIN=  -48


 real space projection operators:
  total allocation   :      39109.52 KBytes
  max/ min on nodes  :       4384.08       3738.77


 parallel 3D FFT for wavefunctions:
    minimum data exchange during FFTs selected (reduces bandwidth)
 parallel 3D FFT for charge:
    minimum data exchange during FFTs selected (reduces bandwidth)


 total amount of memory used by VASP MPI-rank0   473235. kBytes
=======================================================================

   base      :      30000. kBytes
   nonlr-proj:      11855. kBytes
   fftplans  :      18152. kBytes
   grid      :      48955. kBytes
   one-center:        217. kBytes
   wavefun   :     364056. kBytes
 
     INWAV:  cpu time    0.0000: real time    0.0000
 Broyden mixing: mesh for mixing (old mesh)
   NGX = 35   NGY = 35   NGZ = 97
  (NGX  =144   NGY  =144   NGZ  =392)
  gives a total of 118825 points

 initial charge density was supplied:
 charge density of overlapping atoms calculated
 number of electron     651.0000000 magnetization      66.0000000
 keeping initial charge density in first step


--------------------------------------------------------------------------------------------------------


 Maximum index for non-local projection operator          630
 Maximum index for augmentation-charges         1306 (set IRDMAX)


--------------------------------------------------------------------------------------------------------


 First call to EWALD:  gamma=   0.115
 Maximum number of real-space cells 4x 4x 2
 Maximum number of reciprocal cells 2x 2x 5

    FEWALD:  cpu time    0.0467: real time    0.0422


--------------------------------------- Iteration      1(   1)  ---------------------------------------


    POTLOK:  cpu time    0.8354: real time    1.3803
    SETDIJ:  cpu time    0.2638: real time    0.2382
     EDDAV:  cpu time  259.5141: real time  133.3711
       DOS:  cpu time    0.3335: real time    0.3819
    --------------------------------------------
      LOOP:  cpu time  260.9469: real time  135.3715

 eigenvalue-minimisations  : 13728
 total energy-change (2. order) : 0.3951004E+04  (-0.2411964E+05)
 number of electron     651.0000000 magnetization      66.0000000
 augmentation part      651.0000000 magnetization      66.0000000

 DIPCOR: dipole corrections for dipol
 direction  3 min pos     1,
 dipolmoment           0.000000      0.000000     -0.000050 electrons x Angstroem
 Tr[quadrupol]    -13607.255976

 energy correction for charged system         0.000000 eV
 dipol+quadrupol energy correction           -0.000000 eV
 added-field ion interaction          0.000165 eV  (added to PSCEN)


 Free energy of the ion-electron system (eV)
  ---------------------------------------------------
  alpha Z        PSCENC =       758.55938571
  Ewald energy   TEWEN  =    381013.19698569
  -Hartree energ DENC   =   -433945.63519467
  -exchange      EXHF   =         0.00000000
  -V(xc)+E(xc)   XCENC  =     -1831.73804368
  PAW double counting   =     52176.66969787   -48197.84703495
  entropy T*S    EENTRO =        -0.00464070
  eigenvalues    EBANDS =      1457.45564011
  atomic energy  EATOM  =     52520.34732352
  Solvation  Ediel_sol  =         0.00000000
  ---------------------------------------------------
  free energy    TOTEN  =      3951.00411888 eV

  energy without entropy =     3951.00875958  energy(sigma->0) =     3951.00566578


--------------------------------------------------------------------------------------------------------




--------------------------------------- Iteration      1(   2)  ---------------------------------------


     EDDAV:  cpu time  295.0554: real time  152.7963
       DOS:  cpu time    0.4291: real time   13.9706
    --------------------------------------------
      LOOP:  cpu time  295.4845: real time  167.0089

 eigenvalue-minimisations  : 16256
 total energy-change (2. order) :-0.4023255E+04  (-0.3708297E+04)
 number of electron     651.0000000 magnetization      66.0000000
 augmentation part      651.0000000 magnetization      66.0000000

 DIPCOR: dipole corrections for dipol
 direction  3 min pos     1,
 dipolmoment           0.000000      0.000000     -0.000050 electrons x Angstroem
 Tr[quadrupol]    -13607.255976

 energy correction for charged system         0.000000 eV
 dipol+quadrupol energy correction           -0.000000 eV
 added-field ion interaction          0.000165 eV  (added to PSCEN)


 Free energy of the ion-electron system (eV)
  ---------------------------------------------------
  alpha Z        PSCENC =       758.55938571
  Ewald energy   TEWEN  =    381013.19698569
  -Hartree energ DENC   =   -433945.63519467
  -exchange      EXHF   =         0.00000000
  -V(xc)+E(xc)   XCENC  =     -1831.73804368
  PAW double counting   =     52176.66969787   -48197.84703495
  entropy T*S    EENTRO =        -0.00480954
  eigenvalues    EBANDS =     -2565.79961137
  atomic energy  EATOM  =     52520.34732352
  Solvation  Ediel_sol  =         0.00000000
  ---------------------------------------------------
  free energy    TOTEN  =       -72.25130143 eV

  energy without entropy =      -72.24649190  energy(sigma->0) =      -72.24969826


--------------------------------------------------------------------------------------------------------




--------------------------------------- Iteration      1(   3)  ---------------------------------------


     EDDAV:  cpu time  286.3066: real time  156.9334
       DOS:  cpu time    0.1198: real time    0.0812
    --------------------------------------------
      LOOP:  cpu time  286.4263: real time  156.7724

 eigenvalue-minimisations  : 15360
 total energy-change (2. order) :-0.2586451E+03  (-0.2357475E+03)
 number of electron     651.0000000 magnetization      66.0000000
 augmentation part      651.0000000 magnetization      66.0000000

 DIPCOR: dipole corrections for dipol
 direction  3 min pos     1,
 dipolmoment           0.000000      0.000000     -0.000050 electrons x Angstroem
 Tr[quadrupol]    -13607.255976

 energy correction for charged system         0.000000 eV
 dipol+quadrupol energy correction           -0.000000 eV
 added-field ion interaction          0.000165 eV  (added to PSCEN)


 Free energy of the ion-electron system (eV)
  ---------------------------------------------------
  alpha Z        PSCENC =       758.55938571
  Ewald energy   TEWEN  =    381013.19698569
  -Hartree energ DENC   =   -433945.63519467
  -exchange      EXHF   =         0.00000000
  -V(xc)+E(xc)   XCENC  =     -1831.73804368
  PAW double counting   =     52176.66969787   -48197.84703495
  entropy T*S    EENTRO =         0.16961289
  eigenvalues    EBANDS =     -2824.61918240
  atomic energy  EATOM  =     52520.34732352
  Solvation  Ediel_sol  =         0.00000000
  ---------------------------------------------------
  free energy    TOTEN  =      -330.89645003 eV

  energy without entropy =     -331.06606292  energy(sigma->0) =     -330.95298766


--------------------------------------------------------------------------------------------------------




--------------------------------------- Iteration      1(   4)  ---------------------------------------


     EDDAV:  cpu time  286.4099: real time  152.1612
       DOS:  cpu time    0.2500: real time    0.2051
    --------------------------------------------
      LOOP:  cpu time  286.6601: real time  152.3664

 eigenvalue-minimisations  : 15568
 total energy-change (2. order) :-0.6582885E+01  (-0.6453239E+01)
 number of electron     651.0000000 magnetization      66.0000000
 augmentation part      651.0000000 magnetization      66.0000000

 DIPCOR: dipole corrections for dipol
 direction  3 min pos     1,
 dipolmoment           0.000000      0.000000     -0.000050 electrons x Angstroem
 Tr[quadrupol]    -13607.255976

 energy correction for charged system         0.000000 eV
 dipol+quadrupol energy correction           -0.000000 eV
 added-field ion interaction          0.000165 eV  (added to PSCEN)


 Free energy of the ion-electron system (eV)
  ---------------------------------------------------
  alpha Z        PSCENC =       758.55938571
  Ewald energy   TEWEN  =    381013.19698569
  -Hartree energ DENC   =   -433945.63519467
  -exchange      EXHF   =         0.00000000
  -V(xc)+E(xc)   XCENC  =     -1831.73804368
  PAW double counting   =     52176.66969787   -48197.84703495
  entropy T*S    EENTRO =         0.17194097
  eigenvalues    EBANDS =     -2831.20439558
  atomic energy  EATOM  =     52520.34732352
  Solvation  Ediel_sol  =         0.00000000
  ---------------------------------------------------
  free energy    TOTEN  =      -337.47933514 eV

  energy without entropy =     -337.65127611  energy(sigma->0) =     -337.53664880


--------------------------------------------------------------------------------------------------------




--------------------------------------- Iteration      1(   5)  ---------------------------------------


     EDDAV:  cpu time  295.1816: real time  148.4318
       DOS:  cpu time    0.2126: real time    0.1696
    CHARGE:  cpu time    7.0763: real time    7.9529
    MIXING:  cpu time    0.0154: real time    0.3269
    --------------------------------------------
      LOOP:  cpu time  302.4858: real time  156.8812

 eigenvalue-minimisations  : 16272
 total energy-change (2. order) :-0.2342089E+00  (-0.2337245E+00)
 number of electron     650.9999439 magnetization      63.6971157
 augmentation part      260.3054318 magnetization      49.8203512

 DIPCOR: dipole corrections for dipol
 direction  3 min pos     1,
 dipolmoment           0.000000      0.000000     -0.000050 electrons x Angstroem
 Tr[quadrupol]    -13607.255976

 energy correction for charged system         0.000000 eV
 dipol+quadrupol energy correction           -0.000000 eV
 added-field ion interaction          0.000165 eV  (added to PSCEN)


 Broyden mixing:
  rms(total) = 0.57679E+01    rms(broyden)= 0.57674E+01
  rms(prec ) = 0.58215E+01
  weight for this iteration     100.00

 Free energy of the ion-electron system (eV)
  ---------------------------------------------------
  alpha Z        PSCENC =       758.55938571
  Ewald energy   TEWEN  =    381013.19698569
  -Hartree energ DENC   =   -433945.63519467
  -exchange      EXHF   =         0.00000000
  -V(xc)+E(xc)   XCENC  =     -1831.73804368
  PAW double counting   =     52176.66969787   -48197.84703495
  entropy T*S    EENTRO =         0.17239451
  eigenvalues    EBANDS =     -2831.43905808
  atomic energy  EATOM  =     52520.34732352
  Solvation  Ediel_sol  =         0.00000000
  ---------------------------------------------------
  free energy    TOTEN  =      -337.71354409 eV

  energy without entropy =     -337.88593860  energy(sigma->0) =     -337.77100893


--------------------------------------------------------------------------------------------------------




--------------------------------------- Iteration      1(   6)  ---------------------------------------


    POTLOK:  cpu time    0.6976: real time    1.6421
    SETDIJ:  cpu time    0.2438: real time    0.5475
    EDDIAG:  cpu time   48.7709: real time   25.2293
  RMM-DIIS:  cpu time  173.3315: real time   87.2825
    ORTHCH:  cpu time    6.4230: real time    3.3273
       DOS:  cpu time    0.1862: real time    0.1323
    CHARGE:  cpu time    7.1167: real time    6.9045
    MIXING:  cpu time    0.1234: real time    0.1809
    --------------------------------------------
      LOOP:  cpu time  236.8932: real time  125.2464

 eigenvalue-minimisations  : 13594
 total energy-change (2. order) : 0.2386499E+02  (-0.6188403E+01)
 number of electron     650.9999417 magnetization      60.8279399
 augmentation part      270.8888829 magnetization      45.7965434

 DIPCOR: dipole corrections for dipol
 direction  3 min pos     1,
 dipolmoment           0.000000      0.000000      0.061837 electrons x Angstroem
 Tr[quadrupol]    -13612.088501

 energy correction for charged system         0.000000 eV
 dipol+quadrupol energy correction           -0.000096 eV
 added-field ion interaction         -0.204700 eV  (added to PSCEN)


 Broyden mixing:
  rms(total) = 0.32946E+01    rms(broyden)= 0.32937E+01
  rms(prec ) = 0.33481E+01
  weight for this iteration     100.00

 eigenvalues of (default mixing * dielectric matrix)
  average eigenvalue GAMMA=   1.0565
  1.0565

 Free energy of the ion-electron system (eV)
  ---------------------------------------------------
  alpha Z        PSCENC =       758.35442436
  Ewald energy   TEWEN  =    381013.19698569
  -Hartree energ DENC   =   -433739.09167177
  -exchange      EXHF   =         0.00000000
  -V(xc)+E(xc)   XCENC  =     -1837.23245124
  PAW double counting   =     55990.33887707   -52087.73084957
  entropy T*S    EENTRO =         0.10693018
  eigenvalues    EBANDS =     -2932.13811854
  atomic energy  EATOM  =     52520.34732352
  Solvation  Ediel_sol  =         0.00000000
  ---------------------------------------------------
  free energy    TOTEN  =      -313.84855029 eV

  energy without entropy =     -313.95548048  energy(sigma->0) =     -313.88419369


--------------------------------------------------------------------------------------------------------




--------------------------------------- Iteration      1(   7)  ---------------------------------------


    POTLOK:  cpu time    0.7390: real time    6.9908
    SETDIJ:  cpu time    0.0857: real time    0.0532
    EDDIAG:  cpu time   47.0762: real time   23.6199
  RMM-DIIS:  cpu time  168.0961: real time   84.5870
    ORTHCH:  cpu time    5.6874: real time    3.0145
       DOS:  cpu time    0.1004: real time    0.0643
    CHARGE:  cpu time    7.1113: real time    6.8442
    MIXING:  cpu time    0.0427: real time    0.0214
    --------------------------------------------
      LOOP:  cpu time  228.9390: real time  125.1954

 eigenvalue-minimisations  : 13596
 total energy-change (2. order) :-0.4383153E+01  (-0.3024437E+01)
 number of electron     650.9999401 magnetization      59.3561374
 augmentation part      268.9529484 magnetization      46.4127696

 DIPCOR: dipole corrections for dipol
 direction  3 min pos     1,
 dipolmoment           0.000000      0.000000      0.415518 electrons x Angstroem
 Tr[quadrupol]    -13622.620701

 energy correction for charged system         0.000000 eV
 dipol+quadrupol energy correction           -0.004317 eV
 added-field ion interaction         -1.375499 eV  (added to PSCEN)


 Broyden mixing:
  rms(total) = 0.46728E+01    rms(broyden)= 0.46715E+01
  rms(prec ) = 0.54581E+01
  weight for this iteration     100.00

 eigenvalues of (default mixing * dielectric matrix)
  average eigenvalue GAMMA=   0.8476
  1.3380  0.3571

 Free energy of the ion-electron system (eV)
  ---------------------------------------------------
  alpha Z        PSCENC =       757.17940362
  Ewald energy   TEWEN  =    381013.19698569
  -Hartree energ DENC   =   -434128.74515057
  -exchange      EXHF   =         0.00000000
  -V(xc)+E(xc)   XCENC  =     -1829.99199453
  PAW double counting   =     58920.79716221   -55050.12300202
  entropy T*S    EENTRO =        -0.02152595
  eigenvalues    EBANDS =     -2520.87090548
  atomic energy  EATOM  =     52520.34732352
  Solvation  Ediel_sol  =         0.00000000
  ---------------------------------------------------
  free energy    TOTEN  =      -318.23170351 eV

  energy without entropy =     -318.21017756  energy(sigma->0) =     -318.22452819


--------------------------------------------------------------------------------------------------------




--------------------------------------- Iteration      1(   8)  ---------------------------------------


    POTLOK:  cpu time    0.8377: real time    0.8214
    SETDIJ:  cpu time    0.0790: real time    0.0481
    EDDIAG:  cpu time   48.0246: real time   24.1321
  RMM-DIIS:  cpu time  169.8632: real time   86.0725
    ORTHCH:  cpu time    5.5362: real time    2.8763
       DOS:  cpu time    0.0745: real time    0.0373
    CHARGE:  cpu time    7.2337: real time    6.9469
    MIXING:  cpu time    0.0426: real time    0.0214
    --------------------------------------------
      LOOP:  cpu time  231.6916: real time  120.9561

 eigenvalue-minimisations  : 13568
 total energy-change (2. order) :-0.1145134E+02  (-0.3614347E+01)
 number of electron     650.9999436 magnetization      57.9014721
 augmentation part      267.8527081 magnetization      43.1899192

 DIPCOR: dipole corrections for dipol
 direction  3 min pos     1,
 dipolmoment           0.000000      0.000000     -1.617882 electrons x Angstroem
 Tr[quadrupol]    -13623.123686

 energy correction for charged system         0.000000 eV
 dipol+quadrupol energy correction           -0.065455 eV
 added-field ion interaction          5.355715 eV  (added to PSCEN)


 Broyden mixing:
  rms(total) = 0.47225E+01    rms(broyden)= 0.47219E+01
  rms(prec ) = 0.61533E+01
  weight for this iteration     100.00

 eigenvalues of (default mixing * dielectric matrix)
  average eigenvalue GAMMA=   0.7911
  1.6669  0.5597  0.1466

 Free energy of the ion-electron system (eV)
  ---------------------------------------------------
  alpha Z        PSCENC =       763.84948053
  Ewald energy   TEWEN  =    381013.19698569
  -Hartree energ DENC   =   -434125.75389508
  -exchange      EXHF   =         0.00000000
  -V(xc)+E(xc)   XCENC  =     -1825.82851036
  PAW double counting   =     59879.48947127   -56021.33989126
  entropy T*S    EENTRO =        -0.09679189
  eigenvalues    EBANDS =     -2533.54721325
  atomic energy  EATOM  =     52520.34732352
  Solvation  Ediel_sol  =         0.00000000
  ---------------------------------------------------
  free energy    TOTEN  =      -329.68304084 eV

  energy without entropy =     -329.58624894  energy(sigma->0) =     -329.65077687


--------------------------------------------------------------------------------------------------------




--------------------------------------- Iteration      1(   9)  ---------------------------------------


    POTLOK:  cpu time    0.8475: real time    0.8143
    SETDIJ:  cpu time    0.0738: real time    0.0457
    EDDIAG:  cpu time   46.8919: real time   23.5194
  RMM-DIIS:  cpu time  168.0930: real time   85.0629
    ORTHCH:  cpu time    5.8438: real time    3.0309
       DOS:  cpu time    0.0922: real time    0.0485
    CHARGE:  cpu time    6.9458: real time    6.6609
    MIXING:  cpu time    0.0410: real time    0.0206
    --------------------------------------------
      LOOP:  cpu time  228.8289: real time  119.2032

 eigenvalue-minimisations  : 13576
 total energy-change (2. order) : 0.1659419E+02  (-0.1731708E+01)
 number of electron     650.9999388 magnetization      56.5232300
 augmentation part      270.1622666 magnetization      42.7028185

 DIPCOR: dipole corrections for dipol
 direction  3 min pos     1,
 dipolmoment           0.000000      0.000000      0.637962 electrons x Angstroem
 Tr[quadrupol]    -13623.476085

 energy correction for charged system         0.000000 eV
 dipol+quadrupol energy correction           -0.010177 eV
 added-field ion interaction         -2.111860 eV  (added to PSCEN)


 Broyden mixing:
  rms(total) = 0.48005E+01    rms(broyden)= 0.47993E+01
  rms(prec ) = 0.58495E+01
  weight for this iteration     100.00

 eigenvalues of (default mixing * dielectric matrix)
  average eigenvalue GAMMA=   0.7251
  1.9438  0.6641  0.1916  0.1010

 Free energy of the ion-electron system (eV)
  ---------------------------------------------------
  alpha Z        PSCENC =       756.43718276
  Ewald energy   TEWEN  =    381013.19698569
  -Hartree energ DENC   =   -434141.48051986
  -exchange      EXHF   =         0.00000000
  -V(xc)+E(xc)   XCENC  =     -1822.12369960
  PAW double counting   =     60623.13382528   -56777.07908900
  entropy T*S    EENTRO =        -0.03334747
  eigenvalues    EBANDS =     -2485.48751363
  atomic energy  EATOM  =     52520.34732352
  Solvation  Ediel_sol  =         0.00000000
  ---------------------------------------------------
  free energy    TOTEN  =      -313.08885232 eV

  energy without entropy =     -313.05550484  energy(sigma->0) =     -313.07773649


--------------------------------------------------------------------------------------------------------




--------------------------------------- Iteration      1(  10)  ---------------------------------------


    POTLOK:  cpu time    0.8274: real time    0.8197
    SETDIJ:  cpu time    0.0763: real time    0.0468
    EDDIAG:  cpu time   47.6101: real time   23.8651
  RMM-DIIS:  cpu time  168.6628: real time   84.7845
    ORTHCH:  cpu time    5.8639: real time    3.0837
       DOS:  cpu time    0.2880: real time    0.3396
    CHARGE:  cpu time    6.2662: real time    5.9819
    MIXING:  cpu time    0.0421: real time    0.0228
    --------------------------------------------
      LOOP:  cpu time  229.6368: real time  118.9441

 eigenvalue-minimisations  : 13594
 total energy-change (2. order) : 0.2399244E+02  (-0.8971505E+00)
 number of electron     650.9999413 magnetization      55.3900192
 augmentation part      271.5059594 magnetization      38.7193744

 DIPCOR: dipole corrections for dipol
 direction  3 min pos     1,
 dipolmoment           0.000000      0.000000     -0.089818 electrons x Angstroem
 Tr[quadrupol]    -13624.470579

 energy correction for charged system         0.000000 eV
 dipol+quadrupol energy correction           -0.000202 eV
 added-field ion interaction          0.297328 eV  (added to PSCEN)


 Broyden mixing:
  rms(total) = 0.22551E+01    rms(broyden)= 0.22545E+01
  rms(prec ) = 0.24249E+01
  weight for this iteration     100.00

 eigenvalues of (default mixing * dielectric matrix)
  average eigenvalue GAMMA=   0.6638
  2.0627  0.6788  0.2674  0.2106  0.0995

 Free energy of the ion-electron system (eV)
  ---------------------------------------------------
  alpha Z        PSCENC =       758.85634683
  Ewald energy   TEWEN  =    381013.19698569
  -Hartree energ DENC   =   -434167.47567618
  -exchange      EXHF   =         0.00000000
  -V(xc)+E(xc)   XCENC  =     -1819.32961671
  PAW double counting   =     61192.54457828   -57355.44248707
  entropy T*S    EENTRO =        -0.09519598
  eigenvalues    EBANDS =     -2431.69866861
  atomic energy  EATOM  =     52520.34732352
  Solvation  Ediel_sol  =         0.00000000
  ---------------------------------------------------
  free energy    TOTEN  =      -289.09641025 eV

  energy without entropy =     -289.00121427  energy(sigma->0) =     -289.06467825


--------------------------------------------------------------------------------------------------------




--------------------------------------- Iteration      1(  11)  ---------------------------------------


    POTLOK:  cpu time    0.8464: real time    0.7572
    SETDIJ:  cpu time    0.0732: real time    0.0451
    EDDIAG:  cpu time   47.6450: real time   23.9844
  RMM-DIIS:  cpu time  168.4416: real time   84.7122
    ORTHCH:  cpu time    6.1303: real time    3.0788
       DOS:  cpu time    0.0869: real time    0.0436
    CHARGE:  cpu time    6.8102: real time    6.5471
    MIXING:  cpu time    0.1113: real time    0.0913
    --------------------------------------------
      LOOP:  cpu time  230.1447: real time  119.2595

 eigenvalue-minimisations  : 13604
 total energy-change (2. order) : 0.4069715E+01  (-0.8040972E+00)
 number of electron     650.9999422 magnetization      53.6975802
 augmentation part      271.9720895 magnetization      37.9363762

 DIPCOR: dipole corrections for dipol
 direction  3 min pos     1,
 dipolmoment           0.000000      0.000000     -0.126956 electrons x Angstroem
 Tr[quadrupol]    -13624.017896

 energy correction for charged system         0.000000 eV
 dipol+quadrupol energy correction           -0.000403 eV
 added-field ion interaction          0.420265 eV  (added to PSCEN)


 Broyden mixing:
  rms(total) = 0.18423E+01    rms(broyden)= 0.18421E+01
  rms(prec ) = 0.20355E+01
  weight for this iteration     100.00

 eigenvalues of (default mixing * dielectric matrix)
  average eigenvalue GAMMA=   0.6454
  2.1579  0.7512  0.3473  0.3473  0.1684  0.1004

 Free energy of the ion-electron system (eV)
  ---------------------------------------------------
  alpha Z        PSCENC =       758.97908190
  Ewald energy   TEWEN  =    381013.19698569
  -Hartree energ DENC   =   -434144.99307418
  -exchange      EXHF   =         0.00000000
  -V(xc)+E(xc)   XCENC  =     -1818.92835127
  PAW double counting   =     61470.72024852   -57635.90272108
  entropy T*S    EENTRO =        -0.05939438
  eigenvalues    EBANDS =     -2448.38679429
  atomic energy  EATOM  =     52520.34732352
  Solvation  Ediel_sol  =         0.00000000
  ---------------------------------------------------
  free energy    TOTEN  =      -285.02669558 eV

  energy without entropy =     -284.96730120  energy(sigma->0) =     -285.00689745


--------------------------------------------------------------------------------------------------------




--------------------------------------- Iteration      1(  12)  ---------------------------------------


    POTLOK:  cpu time    0.7717: real time    1.1875
    SETDIJ:  cpu time    0.0870: real time    0.0626
    EDDIAG:  cpu time   49.0994: real time   25.5836
  RMM-DIIS:  cpu time  170.6570: real time   86.0888
    ORTHCH:  cpu time    6.2757: real time    3.8271
       DOS:  cpu time    0.3434: real time    0.3225
    CHARGE:  cpu time    7.0262: real time    7.2006
    MIXING:  cpu time    0.0258: real time    0.8443
    --------------------------------------------
      LOOP:  cpu time  234.2863: real time  125.2361

 eigenvalue-minimisations  : 13604
 total energy-change (2. order) : 0.3040602E+00  (-0.3185687E+00)
 number of electron     650.9999422 magnetization      52.8101254
 augmentation part      270.9176684 magnetization      36.7760020

 DIPCOR: dipole corrections for dipol
 direction  3 min pos     1,
 dipolmoment           0.000000      0.000000     -0.119266 electrons x Angstroem
 Tr[quadrupol]    -13626.513164

 energy correction for charged system         0.000000 eV
 dipol+quadrupol energy correction           -0.000356 eV
 added-field ion interaction          0.394810 eV  (added to PSCEN)


 Broyden mixing:
  rms(total) = 0.16107E+01    rms(broyden)= 0.16105E+01
  rms(prec ) = 0.17678E+01
  weight for this iteration     100.00

 eigenvalues of (default mixing * dielectric matrix)
  average eigenvalue GAMMA=   0.6117
  2.1769  0.7831  0.4256  0.4256  0.1003  0.1967  0.1736

 Free energy of the ion-electron system (eV)
  ---------------------------------------------------
  alpha Z        PSCENC =       758.95367444
  Ewald energy   TEWEN  =    381013.19698569
  -Hartree energ DENC   =   -434260.57804992
  -exchange      EXHF   =         0.00000000
  -V(xc)+E(xc)   XCENC  =     -1818.81442944
  PAW double counting   =     61782.73093650   -57948.84974914
  entropy T*S    EENTRO =        -0.06145464
  eigenvalues    EBANDS =     -2331.64787236
  atomic energy  EATOM  =     52520.34732352
  Solvation  Ediel_sol  =         0.00000000
  ---------------------------------------------------
  free energy    TOTEN  =      -284.72263535 eV

  energy without entropy =     -284.66118070  energy(sigma->0) =     -284.70215047


--------------------------------------------------------------------------------------------------------




--------------------------------------- Iteration      1(  13)  ---------------------------------------


    POTLOK:  cpu time    0.7483: real time    6.7612
    SETDIJ:  cpu time    0.2379: real time    0.6051
    EDDIAG:  cpu time   48.0608: real time   24.0962
  RMM-DIIS:  cpu time  172.8641: real time   86.9325
    ORTHCH:  cpu time    5.9856: real time    3.0120
       DOS:  cpu time    0.1750: real time    0.1318
    CHARGE:  cpu time    6.9780: real time    6.6915
    MIXING:  cpu time    0.0421: real time    0.0216
    --------------------------------------------
      LOOP:  cpu time  235.0919: real time  128.1330

 eigenvalue-minimisations  : 13620
 total energy-change (2. order) :-0.5149775E+00  (-0.1591412E+00)
 number of electron     650.9999419 magnetization      51.9177366
 augmentation part      270.6536162 magnetization      35.5803711

 DIPCOR: dipole corrections for dipol
 direction  3 min pos     1,
 dipolmoment           0.000000      0.000000      0.028759 electrons x Angstroem
 Tr[quadrupol]    -13627.478518

 energy correction for charged system         0.000000 eV
 dipol+quadrupol energy correction           -0.000021 eV
 added-field ion interaction         -0.095200 eV  (added to PSCEN)


 Broyden mixing:
  rms(total) = 0.11234E+01    rms(broyden)= 0.11233E+01
  rms(prec ) = 0.12231E+01
  weight for this iteration     100.00

 eigenvalues of (default mixing * dielectric matrix)
  average eigenvalue GAMMA=   0.5918
  2.1122  0.6356  0.6356  0.6517  0.2399  0.0999  0.1798  0.1798

 Free energy of the ion-electron system (eV)
  ---------------------------------------------------
  alpha Z        PSCENC =       758.46399929
  Ewald energy   TEWEN  =    381013.19698569
  -Hartree energ DENC   =   -434306.71888488
  -exchange      EXHF   =         0.00000000
  -V(xc)+E(xc)   XCENC  =     -1819.98752457
  PAW double counting   =     61847.97730795   -58013.83925268
  entropy T*S    EENTRO =        -0.03677703
  eigenvalues    EBANDS =     -2284.64079017
  atomic energy  EATOM  =     52520.34732352
  Solvation  Ediel_sol  =         0.00000000
  ---------------------------------------------------
  free energy    TOTEN  =      -285.23761288 eV

  energy without entropy =     -285.20083585  energy(sigma->0) =     -285.22535387


--------------------------------------------------------------------------------------------------------




--------------------------------------- Iteration      1(  14)  ---------------------------------------


    POTLOK:  cpu time    0.7831: real time    0.7409
    SETDIJ:  cpu time    0.0890: real time    0.0539
    EDDIAG:  cpu time   47.7794: real time   23.9571
  RMM-DIIS:  cpu time  169.0188: real time   85.2823
    ORTHCH:  cpu time    6.2426: real time    3.1363
       DOS:  cpu time    0.1658: real time    0.1260
    CHARGE:  cpu time    7.1404: real time    6.8960
    MIXING:  cpu time    0.1080: real time    0.2529
    --------------------------------------------
      LOOP:  cpu time  231.3272: real time  120.4784

 eigenvalue-minimisations  : 13616
 total energy-change (2. order) :-0.2690649E+01  (-0.1213645E+00)
 number of electron     650.9999417 magnetization      50.6637882
 augmentation part      270.8359645 magnetization      34.8640405

 DIPCOR: dipole corrections for dipol
 direction  3 min pos     1,
 dipolmoment           0.000000      0.000000      0.097866 electrons x Angstroem
 Tr[quadrupol]    -13627.395170

 energy correction for charged system         0.000000 eV
 dipol+quadrupol energy correction           -0.000240 eV
 added-field ion interaction         -0.323968 eV  (added to PSCEN)


 Broyden mixing:
  rms(total) = 0.10497E+01    rms(broyden)= 0.10496E+01
  rms(prec ) = 0.11442E+01
  weight for this iteration     100.00

 eigenvalues of (default mixing * dielectric matrix)
  average eigenvalue GAMMA=   0.5936
  2.0669  0.8397  0.8397  0.6221  0.2588  0.2588  0.1001  0.1950  0.1613

 Free energy of the ion-electron system (eV)
  ---------------------------------------------------
  alpha Z        PSCENC =       758.23501317
  Ewald energy   TEWEN  =    381013.19698569
  -Hartree energ DENC   =   -434305.12531984
  -exchange      EXHF   =         0.00000000
  -V(xc)+E(xc)   XCENC  =     -1821.72387901
  PAW double counting   =     61762.01930147   -57926.11880395
  entropy T*S    EENTRO =         0.01649754
  eigenvalues    EBANDS =     -2288.77538017
  atomic energy  EATOM  =     52520.34732352
  Solvation  Ediel_sol  =         0.00000000
  ---------------------------------------------------
  free energy    TOTEN  =      -287.92826158 eV

  energy without entropy =     -287.94475913  energy(sigma->0) =     -287.93376076


--------------------------------------------------------------------------------------------------------




--------------------------------------- Iteration      1(  15)  ---------------------------------------


    POTLOK:  cpu time    0.7026: real time    1.6119
    SETDIJ:  cpu time    0.1989: real time    0.1864
    EDDIAG:  cpu time   47.9419: real time   24.1364
  RMM-DIIS:  cpu time  170.5465: real time   85.5943
    ORTHCH:  cpu time    6.3057: real time    3.1776
       DOS:  cpu time    0.1044: real time    0.0523
    CHARGE:  cpu time    7.0618: real time    6.7918
    MIXING:  cpu time    0.0496: real time    0.0251
    --------------------------------------------
      LOOP:  cpu time  232.9123: real time  121.5435

 eigenvalue-minimisations  : 13614
 total energy-change (2. order) :-0.2698260E+01  (-0.1113947E+00)
 number of electron     650.9999420 magnetization      48.5517649
 augmentation part      270.8350875 magnetization      33.2916615

 DIPCOR: dipole corrections for dipol
 direction  3 min pos     1,
 dipolmoment           0.000000      0.000000      0.103917 electrons x Angstroem
 Tr[quadrupol]    -13628.050864

 energy correction for charged system         0.000000 eV
 dipol+quadrupol energy correction           -0.000270 eV
 added-field ion interaction         -0.343999 eV  (added to PSCEN)


 Broyden mixing:
  rms(total) = 0.95074E+00    rms(broyden)= 0.95068E+00
  rms(prec ) = 0.10263E+01
  weight for this iteration     100.00

 eigenvalues of (default mixing * dielectric matrix)
  average eigenvalue GAMMA=   0.6295
  2.0110  1.1698  1.1698  0.6479  0.3075  0.3075  0.1000  0.2379  0.1720  0.1720

 Free energy of the ion-electron system (eV)
  ---------------------------------------------------
  alpha Z        PSCENC =       758.21495160
  Ewald energy   TEWEN  =    381013.19698569
  -Hartree energ DENC   =   -434331.03512889
  -exchange      EXHF   =         0.00000000
  -V(xc)+E(xc)   XCENC  =     -1823.26357334
  PAW double counting   =     61730.96107611   -57894.06756759
  entropy T*S    EENTRO =         0.03777380
  eigenvalues    EBANDS =     -2265.01836206
  atomic energy  EATOM  =     52520.34732352
  Solvation  Ediel_sol  =         0.00000000
  ---------------------------------------------------
  free energy    TOTEN  =      -290.62652117 eV

  energy without entropy =     -290.66429498  energy(sigma->0) =     -290.63911244


--------------------------------------------------------------------------------------------------------




[...]
   0.194E+02 0.146E+02 -.258E+04   -.194E+02 -.145E+02 0.257E+04   -.741E-01 -.245E-01 0.323E+01   -.832E-04 -.272E-03 -.210E-03
   0.199E+02 -.147E+02 -.258E+04   -.198E+02 0.147E+02 0.258E+04   -.856E-01 0.233E-01 0.323E+01   -.939E-04 -.459E-04 -.882E-04
   0.793E+01 -.116E+02 -.259E+04   -.793E+01 0.116E+02 0.258E+04   0.158E-02 -.153E-01 0.325E+01   0.613E-04 0.140E-03 0.425E-04
   0.215E+02 0.277E+02 -.258E+04   -.215E+02 -.277E+02 0.257E+04   -.138E-01 -.357E-02 0.328E+01   0.379E-03 0.633E-04 -.354E-03
   0.942E+02 0.694E+02 -.251E+04   -.951E+02 -.699E+02 0.250E+04   0.873E+00 0.518E+00 0.350E+01   0.579E-03 -.116E-03 -.615E-03
   0.936E+02 -.696E+02 -.251E+04   -.945E+02 0.701E+02 0.250E+04   0.872E+00 -.521E+00 0.350E+01   0.764E-03 0.795E-04 -.641E-03
   0.214E+02 -.274E+02 -.257E+04   -.214E+02 0.274E+02 0.257E+04   -.161E-01 0.269E-02 0.328E+01   0.674E-03 -.296E-04 -.391E-03
   -.112E+02 0.395E+02 -.257E+04   0.113E+02 -.393E+02 0.257E+04   -.118E-01 -.158E+00 0.329E+01   -.244E-03 0.943E-04 -.486E-03
   -.920E+02 0.154E+03 -.245E+04   0.919E+02 -.154E+03 0.244E+04   0.132E+00 -.507E-01 0.156E+01   -.152E-03 0.758E-05 -.702E-03
   -.921E+02 -.155E+03 -.245E+04   0.920E+02 0.155E+03 0.244E+04   0.136E+00 0.503E-01 0.158E+01   -.166E-03 0.118E-03 -.839E-03
   -.113E+02 -.387E+02 -.257E+04   0.113E+02 0.386E+02 0.257E+04   -.115E-01 0.152E+00 0.329E+01   -.264E-03 -.231E-03 -.609E-03
   -.177E+02 0.161E+02 -.259E+04   0.177E+02 -.161E+02 0.258E+04   -.131E-01 0.544E-02 0.328E+01   -.188E-03 0.175E-03 -.188E-03
   -.471E+02 0.221E+02 -.256E+04   0.471E+02 -.222E+02 0.256E+04   -.323E-01 0.556E-01 0.333E+01   -.326E-03 -.256E-04 -.300E-03
   -.466E+02 -.226E+02 -.256E+04   0.467E+02 0.227E+02 0.256E+04   -.428E-01 -.512E-01 0.333E+01   -.490E-03 -.211E-04 -.263E-03
   -.176E+02 -.157E+02 -.258E+04   0.176E+02 0.157E+02 0.258E+04   -.936E-02 -.789E-02 0.328E+01   -.464E-03 -.131E-03 -.161E-03
   0.529E+02 -.799E+00 -.138E+04   -.588E+02 0.896E+00 0.136E+04   0.588E+01 -.978E-01 0.275E+02   0.677E-04 -.509E-04 -.185E-03
   -.637E+01 0.403E+00 -.208E+04   0.881E+01 -.522E+00 0.214E+04   -.242E+01 0.125E+00 -.574E+02   0.501E-04 -.165E-04 0.247E-03
 -----------------------------------------------------------------------------------------------
   -.546E+01 -.138E-01 0.322E+02   0.242E-12 0.320E-13 -.227E-11   0.545E+01 0.144E-01 -.321E+02   0.119E-03 -.736E-04 -.438E-01
 
 
 POSITION                                       TOTAL-FORCE (eV/Angst)
 -----------------------------------------------------------------------------------
      1.37243      1.37272     12.08691        -0.001629     -0.004045     -0.003520
      1.37242      4.11824     12.08691         0.000779     -0.003949      0.005701
      1.37244      6.86375     12.08691        -0.002446      0.005928     -0.006096
      1.37245      9.60921     12.08690        -0.029294     -0.000556     -0.018459
      4.11796      1.37262     12.08637         0.014393     -0.003250      0.012769
      4.11794      4.11824     12.08633        -0.004634     -0.003588      0.006598
      4.11796      6.86384     12.08637         0.015449      0.004443      0.010502
      4.11799      9.60921     12.08648         0.019481     -0.000277      0.022832
      6.86386      1.37265     12.08647        -0.004180      0.001102      0.008567
      6.86387      4.11824     12.08645         0.005068     -0.002197      0.013625
      6.86386      6.86382     12.08647        -0.003810      0.002827      0.008561
      6.86386      9.60921     12.08654        -0.003076     -0.001484      0.014293
      9.60931      1.37273     12.08697        -0.003904     -0.009647     -0.000207
      9.60929      4.11824     12.08701        -0.011017     -0.002887      0.013493
      9.60931      6.86374     12.08697        -0.005930      0.014321     -0.000970
      9.60933      9.60922     12.08696         0.031163     -0.002050     -0.040922
      0.00013      0.00025     14.04086         0.000297      0.002676      0.010496
     10.98173      2.74436     14.03901        -0.002257     -0.001766      0.004959
     10.98141      5.49174     14.03767         0.000652      0.000525      0.012536
     10.98199      8.23594     14.04116        -0.000086     -0.000009      0.007497
      2.74584      0.00001     14.03709         0.002760      0.000228     -0.004166
      2.74779      2.74345     14.04133        -0.002778      0.002445     -0.007658
      2.74730      5.49160     14.03960         0.000810      0.002204      0.002708
      2.74630      8.23606     14.03666        -0.000860      0.000290     -0.000573
      5.49470      0.00400     14.04495        -0.001980     -0.001452      0.007891
      5.49136      2.74698     14.04628        -0.000411     -0.002908      0.000701
      5.49131      5.48894     14.04495        -0.000425      0.003946      0.008837
      5.49456      8.23247     14.04570        -0.001113      0.001361      0.000985
      8.23501     10.98182     14.03889        -0.002729     -0.000356      0.003364
      8.23174      2.74205     14.04192         0.003060      0.000604     -0.006234
      8.23209      5.49449     14.04076        -0.000212     -0.000339      0.001204
      8.23429      8.23708     14.04026         0.002968     -0.001017     -0.005602
      1.37970      1.37787     15.99255         0.007412      0.004974     -0.002977
      1.37155      4.11825     15.98288        -0.000325     -0.002295     -0.006254
      1.37982      6.85763     15.99108         0.005613      0.000503     -0.002576
      1.37313      9.60941     15.98405         0.005558     -0.002805     -0.002172
      4.12212      1.36933     15.99410         0.000486      0.001160     -0.002883
      4.12453      4.11789     15.98506         0.001741     -0.001910     -0.006587
      4.12231      6.86515     15.99303         0.000480      0.005720     -0.002982
      4.11873      9.60930     15.98503        -0.002008     -0.002198     -0.002296
      6.85129      1.38631     16.01622        -0.002379      0.001632      0.001872
      6.87105      4.11902     15.99356         0.008751     -0.005882     -0.002718
      6.85096      6.84947     16.01560        -0.002735     -0.002090      0.004935
      6.86478      9.61012     15.99170         0.007026     -0.002095      0.000935
      9.60687      1.37112     15.98628        -0.004103      0.002799     -0.001999
      9.61065      4.11840     15.98276         0.000748     -0.000941     -0.006051
      9.60757      6.86435     15.98574        -0.005554      0.002646     -0.002191
      9.60860      9.60991     15.98755        -0.005513     -0.003326     -0.000990
      0.00313      0.00033     17.93894        -0.004335     -0.000058     -0.002703
      0.00283      2.74646     17.94353         0.002475     -0.001143     -0.009882
      0.00529      5.49017     17.94366        -0.007741      0.000722     -0.010648
      0.00219      8.23586     17.93924        -0.000567     -0.000197     -0.008185
      2.74559     10.97690     17.94554         0.000561     -0.003476     -0.006331
      2.73418      2.74691     17.95737         0.003320     -0.000104      0.005876
      2.73444      5.49011     17.95746         0.001104     -0.000620      0.002669
      2.74532      8.24097     17.94136         0.000079      0.003065      0.007081
      5.48921     10.97324     17.95214        -0.000111     -0.001339     -0.001506
      5.49792      2.72560     18.03113        -0.001549      0.000354     -0.004148
      5.49688      5.50757     18.03102         0.002289      0.003403      0.004956
      5.48868      8.24372     17.95171        -0.000253     -0.001597     -0.003812
      8.24181     10.97938     17.94888        -0.003560     -0.001686     -0.009991
      8.25733      2.74565     17.94669         0.003322     -0.000164      0.001812
      8.25911      5.49123     17.94834        -0.004699      0.000184     -0.005757
      8.24058      8.23933     17.94345         0.000345      0.000870      0.007222
      4.67904      4.11471     19.24049        -0.014880     -0.001287     -0.012209
      4.74349      4.11213     20.44490        -0.005110      0.006056     -0.003228
 -----------------------------------------------------------------------------------
    total drift:                               -0.006531      0.000534      0.012725


--------------------------------------------------------------------------------------------------------



  FREE ENERGIE OF THE ION-ELECTRON SYSTEM (eV)
  ---------------------------------------------------
  free  energy   TOTEN  =      -350.81905142 eV

  energy  without entropy=     -350.70670302  energy(sigma->0) =     -350.78160195
 


--------------------------------------------------------------------------------------------------------


    POTLOK:  cpu time    0.9404: real time    1.3570


--------------------------------------------------------------------------------------------------------


 NEB: the previous image is higher in energy: F
 NEB: the next image is higher in energy    : F
 NEB: image is at an extrema
 NEB: diff energy (min, max):     0.044468    0.045813

 NEB: Tangent
 ----------------------------------------------
     -0.00035     -0.00002     -0.00111
     -0.00037      0.00000     -0.00110
     -0.00035      0.00002     -0.00111
     -0.00033     -0.00000     -0.00114
     -0.00032     -0.00011     -0.00167
     -0.00034      0.00000     -0.00168
     -0.00032      0.00011     -0.00167
     -0.00029     -0.00000     -0.00158
      0.00011     -0.00009     -0.00158
      0.00011      0.00000     -0.00157
      0.00011      0.00009     -0.00158
      0.00012     -0.00000     -0.00153
      0.00008     -0.00000     -0.00105
      0.00005      0.00000     -0.00101
      0.00008      0.00000     -0.00105
      0.00011      0.00000     -0.00108
     -0.00724     -0.00265     -0.00524
     -0.01230      0.00052     -0.00804
     -0.01088     -0.00070     -0.00640
     -0.00752      0.00165     -0.00507
      0.00123     -0.00274     -0.00764
     -0.00165     -0.00152     -0.00434
     -0.00129      0.00145     -0.00365
      0.00128      0.00298     -0.01090
     -0.00418      0.00449      0.00499
     -0.00945      0.00512      0.00489
     -0.00807     -0.00515      0.00542
     -0.00509     -0.00466      0.00413
     -0.00843     -0.00029     -0.00124
     -0.01550      0.00005     -0.00283
     -0.01376     -0.00003     -0.00088
     -0.00994     -0.00046     -0.00220
     -0.02503     -0.01970     -0.03410
     -0.01971     -0.00080     -0.02453
     -0.02297      0.01915     -0.03223
     -0.00303     -0.00135     -0.00838
     -0.00316      0.00550      0.01202
     -0.01198      0.00070      0.03440
     -0.00263     -0.00618      0.01114
     -0.00593     -0.00065     -0.00209
     -0.01595      0.00104      0.01239
     -0.02216      0.00010      0.01457
     -0.01446     -0.00043      0.01254
     -0.00518     -0.00017      0.00133
     -0.01905     -0.00072     -0.00936
     -0.02020     -0.00045     -0.01061
     -0.01719      0.00117     -0.00848
     -0.00710     -0.00070     -0.00479
     -0.00971      0.00023     -0.01033
     -0.02899     -0.00127     -0.01640
     -0.02518     -0.00010     -0.01652
     -0.00589     -0.00065     -0.00682
     -0.01488     -0.00430     -0.00394
     -0.08303     -0.02200     -0.08250
     -0.07847      0.01880     -0.07751
     -0.01197      0.00275     -0.00224
     -0.00982     -0.00962      0.00584
     -0.03271     -0.04523      0.04473
     -0.02633      0.04962      0.04164
     -0.00845      0.01176      0.00443
     -0.00250     -0.00378      0.00289
     -0.00992     -0.00007     -0.00521
     -0.00558     -0.00031     -0.00382
     -0.00004      0.00414      0.00279
      0.77139      0.00852      0.25501
      0.48951      0.00830      0.22006

 NEB: forces: par spring, perp REAL, dneb     0.060807    0.049329    0.000000
 NEB: distance to prev, next image, angle between     0.450518    0.438357  157.660396
 NEB: projections on to tangent (spring, REAL)    -0.060807   -0.018332

 stress matrix after NEB project (eV)
    -37.05129     -0.01456     -0.12666
     -0.01456    -37.14950      0.02757
     -0.12666      0.02757     -4.90944
  FORCES: max atom, RMS     0.015122    0.006478
  FORCE total and by dimension    0.052625    0.013402
  Stress total and by dimension   52.697443   37.149504
 Quasi-Newton relaxation of ions (Broydens 2nd method)
  g(Force)  = 0.320E-03   g(Stress)= 0.000E+00

 Reset! Starting new Quasi-Newton update for ions 


--------------------------------------------------------------------------------------------------------


  
 reached required accuracy - stopping structural energy minimisation
     LOOP+:  cpu time13244.2143: real time 7191.7739
    4ORBIT:  cpu time    0.0000: real time    0.0004
 


 total charge     
 
# of ion       s       p       d       tot
------------------------------------------
    1        0.445   0.308   8.522   9.275
    2        0.445   0.307   8.523   9.275
    3        0.445   0.308   8.522   9.275
    4        0.444   0.309   8.521   9.274
    5        0.445   0.307   8.522   9.274
    6        0.445   0.307   8.522   9.274
    7        0.445   0.307   8.522   9.275
    8        0.445   0.306   8.524   9.274
    9        0.445   0.307   8.522   9.275
   10        0.445   0.307   8.522   9.274
   11        0.445   0.307   8.522   9.275
   12        0.445   0.307   8.521   9.273
   13        0.445   0.308   8.521   9.274
   14        0.445   0.306   8.523   9.275
   15        0.445   0.308   8.521   9.274
   16        0.446   0.307   8.523   9.276
   17        0.487   0.480   8.459   9.425
   18        0.486   0.480   8.459   9.425
   19        0.487   0.480   8.459   9.426
   20        0.487   0.480   8.458   9.425
   21        0.486   0.479   8.461   9.426
   22        0.486   0.480   8.458   9.424
   23        0.486   0.480   8.458   9.424
   24        0.486   0.479   8.461   9.426
   25        0.485   0.478   8.457   9.421
   26        0.487   0.480   8.457   9.424
   27        0.487   0.480   8.457   9.425
   28        0.485   0.478   8.457   9.420
   29        0.485   0.477   8.463   9.425
   30        0.485   0.478   8.460   9.423
   31        0.485   0.478   8.460   9.423
   32        0.485   0.476   8.463   9.425
   33        0.486   0.480   8.456   9.422
   34        0.487   0.477   8.463   9.427
   35        0.486   0.480   8.456   9.422
   36        0.487   0.479   8.458   9.424
   37        0.485   0.473   8.466   9.424
   38        0.477   0.458   8.479   9.414
   39        0.485   0.473   8.466   9.424
   40        0.486   0.479   8.461   9.426
   41        0.487   0.476   8.462   9.426
   42        0.482   0.468   8.471   9.421
   43        0.487   0.476   8.462   9.425
   44        0.485   0.477   8.458   9.420
   45        0.486   0.478   8.458   9.422
   46        0.486   0.480   8.461   9.427
   47        0.486   0.478   8.458   9.422
   48        0.488   0.480   8.457   9.426
   49        0.445   0.309   8.522   9.275
   50        0.447   0.310   8.522   9.279
   51        0.447   0.310   8.522   9.280
   52        0.445   0.308   8.522   9.275
   53        0.446   0.308   8.523   9.276
   54        0.429   0.314   8.538   9.281
   55        0.429   0.314   8.538   9.281
   56        0.447   0.309   8.523   9.278
   57        0.448   0.311   8.526   9.285
   58        0.459   0.423   8.526   9.408
   59        0.458   0.421   8.526   9.405
   60        0.448   0.310   8.526   9.285
   61        0.444   0.307   8.522   9.273
   62        0.447   0.309   8.528   9.284
   63        0.446   0.308   8.529   9.282
   64        0.445   0.308   8.522   9.275
   65        1.303   2.345   0.000   3.648
   66        1.636   3.439   0.000   5.074
--------------------------------------------------
tot         32.730  31.152 543.510 607.393
 


 magnetization (x)
 
# of ion       s       p       d       tot
------------------------------------------
    1       -0.001  -0.004   0.223   0.219
    2       -0.001  -0.004   0.220   0.215
    3       -0.001  -0.004   0.223   0.219
    4       -0.000  -0.003   0.230   0.227
    5       -0.001  -0.004   0.221   0.217
    6       -0.000  -0.004   0.224   0.220
    7       -0.001  -0.004   0.221   0.217
    8       -0.001  -0.004   0.210   0.206
    9       -0.000  -0.004   0.218   0.214
   10       -0.001  -0.003   0.221   0.217
   11       -0.000  -0.004   0.218   0.214
   12       -0.001  -0.003   0.213   0.208
   13       -0.001  -0.003   0.221   0.217
   14       -0.001  -0.004   0.210   0.205
   15       -0.001  -0.003   0.221   0.217
   16        0.003  -0.004   0.232   0.231
   17       -0.002  -0.006   0.323   0.315
   18       -0.002  -0.006   0.321   0.312
   19       -0.002  -0.006   0.320   0.312
   20       -0.002  -0.006   0.324   0.316
   21       -0.002  -0.006   0.322   0.314
   22       -0.002  -0.006   0.321   0.313
   23       -0.002  -0.006   0.321   0.313
   24       -0.002  -0.006   0.322   0.313
   25       -0.002  -0.006   0.317   0.309
   26       -0.002  -0.006   0.320   0.312
   27       -0.002  -0.006   0.320   0.312
   28       -0.002  -0.006   0.318   0.310
   29       -0.002  -0.006   0.306   0.298
   30       -0.002  -0.006   0.318   0.310
   31       -0.002  -0.006   0.318   0.310
   32       -0.002  -0.006   0.306   0.298
   33       -0.002  -0.006   0.306   0.297
   34       -0.002  -0.006   0.312   0.305
   35       -0.002  -0.006   0.306   0.297
   36       -0.002  -0.006   0.326   0.318
   37       -0.002  -0.006   0.308   0.300
   38       -0.001  -0.006   0.279   0.273
   39       -0.002  -0.006   0.308   0.300
   40       -0.002  -0.006   0.310   0.302
   41       -0.002  -0.006   0.273   0.265
   42       -0.001  -0.006   0.304   0.297
   43       -0.002  -0.006   0.273   0.265
   44       -0.002  -0.006   0.307   0.299
   45       -0.002  -0.006   0.316   0.308
   46       -0.002  -0.006   0.305   0.297
   47       -0.002  -0.006   0.316   0.308
   48       -0.001  -0.006   0.327   0.319
   49       -0.001  -0.003   0.214   0.209
   50       -0.001  -0.004   0.202   0.198
   51       -0.001  -0.004   0.202   0.198
   52       -0.001  -0.003   0.214   0.209
   53       -0.001  -0.003   0.217   0.213
   54       -0.002  -0.003   0.176   0.171
   55       -0.002  -0.003   0.177   0.172
   56       -0.001  -0.003   0.217   0.213
   57       -0.000  -0.004   0.198   0.194
   58       -0.003  -0.004   0.074   0.066
   59       -0.003  -0.004   0.074   0.067
   60       -0.000  -0.004   0.198   0.194
   61       -0.001  -0.003   0.219   0.215
   62       -0.000  -0.003   0.208   0.204
   63       -0.000  -0.003   0.208   0.204
   64       -0.001  -0.003   0.219   0.215
   65        0.001  -0.010   0.000  -0.009
   66       -0.000  -0.017   0.000  -0.017
--------------------------------------------------
tot         -0.083  -0.337  16.514  16.094
 

 total amount of memory used by VASP MPI-rank0   473235. kBytes
=======================================================================

   base      :      30000. kBytes
   nonlr-proj:      11855. kBytes
   fftplans  :      18152. kBytes
   grid      :      48955. kBytes
   one-center:        217. kBytes
   wavefun   :     364056. kBytes
 
  
  
 General timing and accounting informations for this job:
 ========================================================
  
                  Total CPU time used (sec):    13305.144
                            User time (sec):    12728.071
                          System time (sec):      577.073
                         Elapsed time (sec):     7372.539
  
                   Maximum memory used (kb):      999364.
                   Average memory used (kb):           0.
  
                          Minor page faults:      6737403
                          Major page faults:          451
                 Voluntary context switches:       359968
