 vasp.5.4.4.18Apr17-6-g9f103f2a35 (build May 01 2020 14:57:12) complex          
  
 executed on             LinuxIFC date 2022.01.30  16:06:10
 running on  192 total cores
 distrk:  each k-point on  192 cores,    1 groups
 distr:  one band on NCORES_PER_BAND=   1 cores,  192 groups


--------------------------------------------------------------------------------------------------------


 INCAR:
 POTCAR:    PAW_PBE H 15Jun2001                   
 POTCAR:    PAW_PBE N 08Apr2002                   
 POTCAR:    PAW_PBE O 08Apr2002                   
 POTCAR:    PAW_PBE Pd 04Jan2005                  

 ----------------------------------------------------------------------------- 
|                                                                             |
|           W    W    AA    RRRRR   N    N  II  N    N   GGGG   !!!           |
|           W    W   A  A   R    R  NN   N  II  NN   N  G    G  !!!           |
|           W    W  A    A  R    R  N N  N  II  N N  N  G       !!!           |
|           W WW W  AAAAAA  RRRRR   N  N N  II  N  N N  G  GGG   !            |
|           WW  WW  A    A  R   R   N   NN  II  N   NN  G    G                |
|           W    W  A    A  R    R  N    N  II  N    N   GGGG   !!!           |
|                                                                             |
|      For optimal performance we recommend to set                            |
|        NCORE= 4 - approx SQRT( number of cores)                             |
|      NCORE specifies how many cores store one orbital (NPAR=cpu/NCORE).     |
|      This setting can  greatly improve the performance of VASP for DFT.     |
|      The default,   NCORE=1            might be grossly inefficient         |
|      on modern multi-core architectures or massively parallel machines.     |
|      Do your own testing !!!!                                               |
|      Unfortunately you need to use the default for GW and RPA calculations. |
|      (for HF NCORE is supported but not extensively tested yet)             |
|                                                                             |
 ----------------------------------------------------------------------------- 

 POTCAR:    PAW_PBE H 15Jun2001                   
   VRHFIN =H: ultrasoft test                                                    
   LEXCH  = PE                                                                  
   EATOM  =    12.4884 eV,    0.9179 Ry                                         
                                                                                
   TITEL  = PAW_PBE H 15Jun2001                                                 
   LULTRA =        F    use ultrasoft PP ?                                      
   IUNSCR =        0    unscreen: 0-lin 1-nonlin 2-no                           
   RPACOR =    0.000    partial core radius                                     
   POMASS =    1.000; ZVAL   =    1.000    mass and valenz                      
   RCORE  =    1.100    outmost cutoff radius                                   
   RWIGS  =    0.700; RWIGS  =    0.370    wigner-seitz radius (au A)           
   ENMAX  =  250.000; ENMIN  =  200.000 eV                                      
   RCLOC  =    0.701    cutoff for local pot                                    
   LCOR   =        T    correct aug charges                                     
   LPAW   =        T    paw PP                                                  
   EAUG   =  400.000                                                            
   RMAX   =    1.123    core radius for proj-oper                               
   RAUG   =    1.200    factor for augmentation sphere                          
   RDEP   =    1.112    radius for radial grids                                 
   RDEPT  =    0.926    core radius for aug-charge                              
                                                                                
   Atomic configuration                                                         
    2 entries                                                                   
     n  l   j            E        occ.                                          
     1  0  0.50        -6.4927   1.0000                                         
     2  1  0.50        -3.4015   0.0000                                         
   Description                                                                  
     l       E           TYP  RCUT    TYP  RCUT                                 
     0     -6.4927494     23  1.100                                             
     0      6.8029130     23  1.100                                             
     1     -4.0817478     23  1.100                                             
  local pseudopotential read in
  atomic valenz-charges read in
  non local Contribution for L=           0  read in
    real space projection operators read in
  non local Contribution for L=           0  read in
    real space projection operators read in
  non local Contribution for L=           1  read in
    real space projection operators read in
    PAW grid and wavefunctions read in
 
   number of l-projection  operators is LMAX  =           3
   number of lm-projection operators is LMMAX =           5
 
 POTCAR:    PAW_PBE N 08Apr2002                   
   VRHFIN =N: s2p3                                                              
   LEXCH  = PE                                                                  
   EATOM  =   264.5486 eV,   19.4438 Ry                                         
                                                                                
   TITEL  = PAW_PBE N 08Apr2002                                                 
   LULTRA =        F    use ultrasoft PP ?                                      
   IUNSCR =        1    unscreen: 0-lin 1-nonlin 2-no                           
   RPACOR =    1.200    partial core radius                                     
   POMASS =   14.001; ZVAL   =    5.000    mass and valenz                      
   RCORE  =    1.500    outmost cutoff radius                                   
   RWIGS  =    1.400; RWIGS  =    0.741    wigner-seitz radius (au A)           
   ENMAX  =  400.000; ENMIN  =  300.000 eV                                      
   ICORE  =        2    local potential                                         
   LCOR   =        T    correct aug charges                                     
   LPAW   =        T    paw PP                                                  
   EAUG   =  627.112                                                            
   DEXC   =    0.000                                                            
   RMAX   =    1.529    core radius for proj-oper                               
   RAUG   =    1.300    factor for augmentation sphere                          
   RDEP   =    1.514    radius for radial grids                                 
   RDEPT  =    1.338    core radius for aug-charge                              
                                                                                
   Atomic configuration                                                         
    4 entries                                                                   
     n  l   j            E        occ.                                          
     1  0  0.50      -384.7179   2.0000                                         
     2  0  0.50       -18.5828   2.0000                                         
     2  1  0.50        -7.0898   3.0000                                         
     3  2  1.50        -6.8029   0.0000                                         
   Description                                                                  
     l       E           TYP  RCUT    TYP  RCUT                                 
     0    -18.5828119     23  1.200                                             
     0    -13.5018863     23  1.200                                             
     1     -7.0897853     23  1.500                                             
     1      9.5240782     23  1.500                                             
     2     -6.8029130      7  1.500                                             
  local pseudopotential read in
  partial core-charges read in
  partial kinetic energy density read in
  atomic valenz-charges read in
  non local Contribution for L=           0  read in
    real space projection operators read in
  non local Contribution for L=           0  read in
    real space projection operators read in
  non local Contribution for L=           1  read in
    real space projection operators read in
  non local Contribution for L=           1  read in
    real space projection operators read in
    PAW grid and wavefunctions read in
 
   number of l-projection  operators is LMAX  =           4
   number of lm-projection operators is LMMAX =           8
 
 POTCAR:    PAW_PBE O 08Apr2002                   
   VRHFIN =O: s2p4                                                              
   LEXCH  = PE                                                                  
   EATOM  =   432.3788 eV,   31.7789 Ry                                         
                                                                                
   TITEL  = PAW_PBE O 08Apr2002                                                 
   LULTRA =        F    use ultrasoft PP ?                                      
   IUNSCR =        1    unscreen: 0-lin 1-nonlin 2-no                           
   RPACOR =    1.200    partial core radius                                     
   POMASS =   16.000; ZVAL   =    6.000    mass and valenz                      
   RCORE  =    1.520    outmost cutoff radius                                   
   RWIGS  =    1.550; RWIGS  =    0.820    wigner-seitz radius (au A)           
   ENMAX  =  400.000; ENMIN  =  300.000 eV                                      
   ICORE  =        2    local potential                                         
   LCOR   =        T    correct aug charges                                     
   LPAW   =        T    paw PP                                                  
   EAUG   =  605.392                                                            
   DEXC   =    0.000                                                            
   RMAX   =    1.553    core radius for proj-oper                               
   RAUG   =    1.300    factor for augmentation sphere                          
   RDEP   =    1.550    radius for radial grids                                 
   RDEPT  =    1.329    core radius for aug-charge                              
                                                                                
   Atomic configuration                                                         
    4 entries                                                                   
     n  l   j            E        occ.                                          
     1  0  0.50      -514.6923   2.0000                                         
     2  0  0.50       -23.9615   2.0000                                         
     2  1  0.50        -9.0305   4.0000                                         
     3  2  1.50        -9.5241   0.0000                                         
   Description                                                                  
     l       E           TYP  RCUT    TYP  RCUT                                 
     0    -23.9615318     23  1.200                                             
     0     -9.5240782     23  1.200                                             
     1     -9.0304911     23  1.520                                             
     1      8.1634956     23  1.520                                             
     2     -9.5240782      7  1.500                                             
  local pseudopotential read in
  partial core-charges read in
  partial kinetic energy density read in
  kinetic energy density of atom read in
  atomic valenz-charges read in
  non local Contribution for L=           0  read in
    real space projection operators read in
  non local Contribution for L=           0  read in
    real space projection operators read in
  non local Contribution for L=           1  read in
    real space projection operators read in
  non local Contribution for L=           1  read in
    real space projection operators read in
    PAW grid and wavefunctions read in
 
   number of l-projection  operators is LMAX  =           4
   number of lm-projection operators is LMMAX =           8
 
 POTCAR:    PAW_PBE Pd 04Jan2005                  
   VRHFIN =Pd : s1 d9                                                           
   LEXCH  = PE                                                                  
   EATOM  =   809.7530 eV,   59.5152 Ry                                         
                                                                                
   TITEL  = PAW_PBE Pd 04Jan2005                                                
   LULTRA =        F    use ultrasoft PP ?                                      
   IUNSCR =        1    unscreen: 0-lin 1-nonlin 2-no                           
   RPACOR =    2.000    partial core radius                                     
   POMASS =  106.420; ZVAL   =   10.000    mass and valenz                      
   RCORE  =    2.600    outmost cutoff radius                                   
   RWIGS  =    2.710; RWIGS  =    1.434    wigner-seitz radius (au A)           
   ENMAX  =  250.925; ENMIN  =  188.194 eV                                      
   ICORE  =        3    local potential                                         
   LCOR   =        T    correct aug charges                                     
   LPAW   =        T    paw PP                                                  
   EAUG   =  416.230                                                            
   DEXC   =    0.000                                                            
   RMAX   =    2.653    core radius for proj-oper                               
   RAUG   =    1.300    factor for augmentation sphere                          
   RDEP   =    2.734    radius for radial grids                                 
   RDEPT  =    2.103    core radius for aug-charge                              
                                                                                
   Atomic configuration                                                         
   12 entries                                                                   
     n  l   j            E        occ.                                          
     1  0  0.50    -24164.6631   2.0000                                         
     2  0  0.50     -3530.9218   2.0000                                         
     2  1  1.50     -3165.6822   6.0000                                         
     3  0  0.50      -639.4577   2.0000                                         
     3  1  1.50      -519.4532   6.0000                                         
     3  2  2.50      -328.9757  10.0000                                         
     4  0  0.50       -88.7014   2.0000                                         
     4  1  1.50       -54.4540   6.0000                                         
     4  2  2.50        -6.6878   9.0000                                         
     5  0  0.50        -4.3543   1.0000                                         
     5  1  0.50        -1.3606   0.0000                                         
     4  3  2.50        -1.3606   0.0000                                         
   Description                                                                  
     l       E           TYP  RCUT    TYP  RCUT                                 
     2     -6.6878251     23  2.400                                             
     2     -8.0484077     23  2.400                                             
     0     -4.3542939     23  2.400                                             
     0      4.3406793     23  2.400                                             
     1     -4.0817478     23  2.600                                             
     1     15.8380318     23  2.600                                             
     3     -4.0817478     23  2.400                                             
  local pseudopotential read in
  partial core-charges read in
  partial kinetic energy density read in
  atomic valenz-charges read in
  non local Contribution for L=           2  read in
    real space projection operators read in
  non local Contribution for L=           2  read in
    real space projection operators read in
  non local Contribution for L=           0  read in
    real space projection operators read in
  non local Contribution for L=           0  read in
    real space projection operators read in
  non local Contribution for L=           1  read in
    real space projection operators read in
  non local Contribution for L=           1  read in
    real space projection operators read in
    PAW grid and wavefunctions read in
 
   number of l-projection  operators is LMAX  =           6
   number of lm-projection operators is LMMAX =          18
 
 Optimization of the real space projectors (new method)

 maximal supplied QI-value         = 34.20
 optimisation between [QCUT,QGAM] = [  9.92, 20.18] = [ 27.55,114.04] Ry 
 Optimized for a Real-space Cutoff    1.34 Angstroem

   l    n(q)    QCUT    max X(q) W(low)/X(q) W(high)/X(q)  e(spline) 
   0      8     9.919    19.460    0.16E-03    0.20E-03    0.36E-06
   0      8     9.919    12.209    0.16E-03    0.20E-03    0.35E-06
   1      8     9.919     4.655    0.19E-03    0.46E-03    0.40E-06
 Optimization of the real space projectors (new method)

 maximal supplied QI-value         = 25.13
 optimisation between [QCUT,QGAM] = [ 10.05, 20.36] = [ 28.30,116.06] Ry 
 Optimized for a Real-space Cutoff    1.70 Angstroem

   l    n(q)    QCUT    max X(q) W(low)/X(q) W(high)/X(q)  e(spline) 
   0     10    10.053    79.467    0.61E-04    0.98E-04    0.61E-06
   0     10    10.053    66.151    0.60E-04    0.98E-04    0.61E-06
   1     10    10.053     8.350    0.17E-03    0.71E-03    0.45E-05
   1     10    10.053     5.531    0.18E-03    0.77E-03    0.49E-05
 Optimization of the real space projectors (new method)

 maximal supplied QI-value         = 24.76
 optimisation between [QCUT,QGAM] = [ 10.15, 20.30] = [ 28.85,115.39] Ry 
 Optimized for a Real-space Cutoff    1.51 Angstroem

   l    n(q)    QCUT    max X(q) W(low)/X(q) W(high)/X(q)  e(spline) 
   0      9    10.150    20.381    0.17E-03    0.18E-03    0.41E-06
   0      9    10.150    15.268    0.18E-03    0.20E-03    0.43E-06
   1      9    10.150     5.964    0.16E-03    0.20E-03    0.36E-06
   1      9    10.150     5.382    0.13E-03    0.16E-03    0.33E-06
 Optimization of the real space projectors (new method)

 maximal supplied QI-value         = 14.36
 optimisation between [QCUT,QGAM] = [ 10.20, 20.39] = [ 29.12,116.47] Ry 
 Optimized for a Real-space Cutoff    1.55 Angstroem

   l    n(q)    QCUT    max X(q) W(low)/X(q) W(high)/X(q)  e(spline) 
   2      9    10.197    59.108    0.12E-03    0.40E-04    0.11E-06
   2      9    10.197    58.101    0.12E-03    0.39E-04    0.12E-06
   0      9    10.197   102.235    0.41E-04    0.86E-05    0.83E-07
   0      9    10.197    58.388    0.37E-04    0.79E-05    0.78E-07
   1      9    10.197    22.191    0.25E-03    0.13E-03    0.84E-07
   1      9    10.197    15.590    0.21E-03    0.11E-03    0.74E-07
  PAW_PBE H 15Jun2001                   :
 energy of atom  1       EATOM=  -12.4884
 kinetic energy error for atom=    0.0098 (will be added to EATOM!!)
  PAW_PBE N 08Apr2002                   :
 energy of atom  2       EATOM= -264.5486
 kinetic energy error for atom=    0.0736 (will be added to EATOM!!)
  PAW_PBE O 08Apr2002                   :
 energy of atom  3       EATOM= -432.3788
 kinetic energy error for atom=    0.1156 (will be added to EATOM!!)
  PAW_PBE Pd 04Jan2005                  :
 energy of atom  4       EATOM= -809.7530
 kinetic energy error for atom=    0.0091 (will be added to EATOM!!)
 
 
 POSCAR: H N O Pd                                
  positions in direct lattice
  velocities in cartesian coordinates
 exchange correlation table for  LEXCH =        8
   RHO(1)=    0.500       N(1)  =     2000
   RHO(2)=  100.500       N(2)  =     4000
 


--------------------------------------------------------------------------------------------------------


 ion  position               nearest neighbor table
   1  0.515  0.145  0.690-   6 0.97
   2  0.285  0.404  0.693-   7 0.98
   3  0.426  0.259  0.692-   6 1.00
   4  0.224  0.281  0.685-   7 0.98
   5  0.374  0.378  0.602-  45 2.00  62 2.00  66 2.01  61 2.03  65 2.05
   6  0.509  0.231  0.682-   1 0.97   3 1.00  65 2.33
   7  0.284  0.321  0.704-   2 0.98   4 0.98
   8  0.125  0.125  0.403-   9 2.75  12 2.75  11 2.75  20 2.75  25 2.75  28 2.75  24 2.75  29 2.77

   9  0.125  0.375  0.403-   8 2.75  10 2.75  13 2.75  21 2.75  25 2.75  26 2.75  30 2.76  29 2.76

  10  0.125  0.625  0.403-   9 2.75  11 2.75  14 2.75  22 2.75  31 2.75  26 2.75  27 2.75  30 2.77

  11  0.125  0.875  0.403-  10 2.75  15 2.75   8 2.75  23 2.75  31 2.75  27 2.75  24 2.75  28 2.75

  12  0.375  0.125  0.403-   8 2.75  13 2.75  16 2.75  15 2.75  28 2.75  32 2.75  33 2.76  29 2.76

  13  0.375  0.375  0.403-   9 2.75  12 2.75  14 2.75  17 2.75  33 2.75  29 2.75  30 2.76  34 2.76

  14  0.375  0.625  0.403-  10 2.75  13 2.75  15 2.75  18 2.75  35 2.75  31 2.75  30 2.76  34 2.76

  15  0.375  0.875  0.403-  11 2.75  14 2.75  19 2.75  12 2.75  35 2.75  31 2.75  28 2.76  32 2.76

  16  0.625  0.125  0.403-  12 2.75  17 2.75  20 2.75  19 2.75  32 2.75  36 2.75  37 2.75  33 2.76

  17  0.625  0.375  0.403-  13 2.75  16 2.75  18 2.75  21 2.75  38 2.75  37 2.75  33 2.76  34 2.76

  18  0.625  0.625  0.403-  14 2.75  17 2.75  19 2.75  22 2.75  35 2.75  38 2.75  39 2.76  34 2.76

  19  0.625  0.875  0.403-  15 2.75  18 2.75  23 2.75  16 2.75  35 2.75  32 2.75  39 2.75  36 2.75

  20  0.875  0.125  0.403-  16 2.75  21 2.75   8 2.75  23 2.75  24 2.75  25 2.75  36 2.75  37 2.75

  21  0.875  0.375  0.403-  17 2.75  20 2.75  22 2.75   9 2.75  25 2.75  26 2.75  37 2.76  38 2.76

  22  0.875  0.625  0.403-  18 2.75  21 2.75  23 2.75  10 2.75  26 2.75  27 2.75  38 2.75  39 2.75

  23  0.875  0.875  0.403-  19 2.75  22 2.75  20 2.75  11 2.75  27 2.75  24 2.75  39 2.75  36 2.75

  24  1.000  0.000  0.468-  25 2.74  28 2.74  27 2.74  36 2.74  52 2.75  43 2.75  20 2.75  55 2.75
                            23 2.75   8 2.75  11 2.75  40 2.76
  25  0.000  0.250  0.468-  24 2.74  41 2.75   8 2.75   9 2.75  52 2.75  29 2.75  53 2.75  26 2.75
                            20 2.75  37 2.75  21 2.75  40 2.76
  26  0.000  0.500  0.468-  41 2.74  27 2.74  10 2.75  53 2.75  22 2.75  30 2.75  54 2.75  38 2.75
                            25 2.75   9 2.75  21 2.75  42 2.76
  27  1.000  0.750  0.468-  31 2.74  39 2.74  26 2.74  24 2.74  23 2.75  54 2.75  22 2.75  11 2.75
                            55 2.75  43 2.75  10 2.75  42 2.76
  28  0.250  0.001  0.468-  24 2.74  47 2.74  29 2.75   8 2.75  12 2.75  43 2.75  31 2.75  32 2.75
                            11 2.75  40 2.75  44 2.75  15 2.76
  29  0.251  0.251  0.468-  30 2.73  33 2.73  28 2.75  25 2.75  41 2.75  44 2.75  40 2.75  13 2.75
                            12 2.76   9 2.76   8 2.77  45 2.80
  30  0.251  0.500  0.468-  29 2.73  34 2.74  41 2.75  46 2.75  31 2.75  26 2.75  13 2.76  42 2.76
                            14 2.76   9 2.76  10 2.77  45 2.80
  31  0.250  0.750  0.468-  46 2.74  27 2.74  10 2.75  11 2.75  47 2.75  30 2.75  43 2.75  28 2.75
                            14 2.75  15 2.75  35 2.75  42 2.76
  32  0.500  0.000  0.468-  36 2.74  44 2.75  33 2.75  51 2.75  16 2.75  47 2.75  12 2.75  35 2.75
                            28 2.75  19 2.75  15 2.76  48 2.76
  33  0.500  0.251  0.468-  34 2.73  29 2.73  37 2.75  32 2.75  44 2.75  48 2.75  13 2.75  49 2.75
                            17 2.76  12 2.76  16 2.76  45 2.79
  34  0.500  0.500  0.468-  33 2.73  30 2.74  38 2.75  35 2.75  50 2.75  46 2.75  13 2.76  49 2.76
                            17 2.76  14 2.76  18 2.76  45 2.79
  35  0.500  0.750  0.468-  46 2.74  39 2.74  18 2.75  19 2.75  51 2.75  34 2.75  47 2.75  14 2.75
                            32 2.75  15 2.75  31 2.75  50 2.76
  36  0.750  0.000  0.468-  32 2.74  37 2.74  24 2.74  39 2.75  51 2.75  52 2.75  20 2.75  16 2.75
                            23 2.75  55 2.75  19 2.75  48 2.77
  37  0.750  0.250  0.468-  36 2.74  33 2.75  53 2.75  52 2.75  49 2.75  38 2.75  25 2.75  16 2.75
                            17 2.75  20 2.75  48 2.76  21 2.76
  38  0.750  0.500  0.468-  39 2.74  34 2.75  53 2.75  18 2.75  37 2.75  54 2.75  26 2.75  22 2.75
                            49 2.75  17 2.75  50 2.76  21 2.76
  39  0.750  0.750  0.468-  27 2.74  35 2.74  38 2.74  36 2.75  51 2.75  54 2.75  23 2.75  55 2.75
                            19 2.75  22 2.75  18 2.76  50 2.76
  40  0.125  0.125  0.533-  52 2.75  43 2.75  41 2.75  61 2.75  44 2.75  29 2.75  28 2.75  56 2.75
                            25 2.76  60 2.76  24 2.76  57 2.77
  41  0.124  0.376  0.533-  53 2.73  42 2.74  26 2.74  30 2.75  25 2.75  40 2.75  29 2.75  58 2.77
                            57 2.77  45 2.78  61 2.81  62 2.85
  42  0.125  0.625  0.533-  41 2.74  46 2.74  54 2.75  43 2.75  59 2.75  30 2.76  31 2.76  26 2.76
                            27 2.76  62 2.76  58 2.77  63 2.77
  43  0.125  0.875  0.533-  47 2.74  55 2.74  40 2.75  42 2.75  24 2.75  28 2.75  31 2.75  27 2.75
                            63 2.75  59 2.76  56 2.76  60 2.77
  44  0.376  0.124  0.533-  48 2.73  47 2.74  32 2.75  45 2.75  33 2.75  40 2.75  29 2.75  64 2.75
                            28 2.75  60 2.76  61 2.82  65 2.90
  45  0.377  0.375  0.536-   5 2.00  49 2.74  44 2.75  46 2.77  41 2.78  33 2.79  34 2.79  29 2.80
                            30 2.80  61 2.81  66 2.83  62 2.86  65 2.88
  46  0.375  0.627  0.533-  47 2.73  42 2.74  31 2.74  35 2.74  50 2.74  30 2.75  34 2.75  63 2.77
                            67 2.77  45 2.77  66 2.83  62 2.85
  47  0.375  0.875  0.533-  46 2.73  44 2.74  43 2.74  28 2.74  32 2.75  31 2.75  51 2.75  35 2.75
                            64 2.76  67 2.76  63 2.76  60 2.77
  48  0.624  0.126  0.534-  49 2.73  44 2.73  33 2.75  64 2.75  37 2.76  52 2.76  68 2.76  51 2.76
                            69 2.76  32 2.76  36 2.77  65 2.82
  49  0.626  0.375  0.533-  48 2.73  45 2.74  53 2.74  50 2.75  37 2.75  38 2.75  33 2.75  34 2.76
                            70 2.76  69 2.76  66 2.85  65 2.88
  50  0.625  0.625  0.533-  46 2.74  49 2.75  51 2.75  34 2.75  54 2.75  71 2.75  38 2.76  66 2.76
                            35 2.76  70 2.76  39 2.76  67 2.77
  51  0.625  0.875  0.533-  36 2.75  39 2.75  64 2.75  55 2.75  32 2.75  47 2.75  35 2.75  50 2.75
                            67 2.75  71 2.76  68 2.76  48 2.76
  52  0.875  0.125  0.533-  69 2.74  55 2.74  53 2.75  40 2.75  24 2.75  37 2.75  25 2.75  36 2.75
                            48 2.76  56 2.76  68 2.76  57 2.77
  53  0.875  0.375  0.533-  41 2.73  49 2.74  54 2.74  52 2.75  26 2.75  37 2.75  38 2.75  25 2.75
                            69 2.75  58 2.76  70 2.76  57 2.77
  54  0.875  0.625  0.533-  53 2.74  42 2.75  55 2.75  38 2.75  27 2.75  26 2.75  39 2.75  50 2.75
                            70 2.76  71 2.76  58 2.76  59 2.76
  55  0.875  0.875  0.533-  43 2.74  52 2.74  51 2.75  54 2.75  24 2.75  27 2.75  39 2.75  59 2.75
                            71 2.75  36 2.75  68 2.75  56 2.76
  56  0.000  0.000  0.598-  59 2.74  57 2.75  68 2.75  60 2.75  40 2.75  55 2.76  52 2.76  43 2.76

  57  0.999  0.250  0.599-  61 2.70  69 2.70  58 2.74  56 2.75  52 2.77  40 2.77  53 2.77  41 2.77

  58  0.999  0.500  0.599-  62 2.70  70 2.72  57 2.74  59 2.75  54 2.76  53 2.76  42 2.77  41 2.77

  59  1.000  0.750  0.598-  71 2.74  56 2.74  63 2.75  58 2.75  55 2.75  42 2.75  54 2.76  43 2.76

  60  0.251  1.000  0.599-  61 2.71  63 2.72  64 2.74  56 2.75  44 2.76  40 2.76  47 2.77  43 2.77

  61  0.245  0.247  0.601-   5 2.03  57 2.70  60 2.71  40 2.75  45 2.81  41 2.81  44 2.82  62 2.85
                            65 2.87
  62  0.244  0.506  0.602-   5 2.00  58 2.70  63 2.71  42 2.76  46 2.85  41 2.85  61 2.85  66 2.85
                            45 2.86
  63  0.250  0.752  0.599-  62 2.71  60 2.72  67 2.74  59 2.75  43 2.75  47 2.76  42 2.77  46 2.77

  64  0.500  0.999  0.598-  67 2.70  65 2.73  68 2.74  60 2.74  51 2.75  48 2.75  44 2.75  47 2.76

  65  0.506  0.246  0.605-   5 2.05   6 2.33  69 2.72  64 2.73  48 2.82  66 2.87  61 2.87  45 2.88
                            49 2.88  44 2.90
  66  0.504  0.507  0.602-   5 2.01  67 2.70  70 2.71  50 2.76  46 2.83  45 2.83  49 2.85  62 2.85
                            65 2.87
  67  0.500  0.753  0.599-  66 2.70  64 2.70  63 2.74  71 2.75  51 2.75  47 2.76  50 2.77  46 2.77

  68  0.750  1.000  0.598-  71 2.74  64 2.74  69 2.74  56 2.75  55 2.75  48 2.76  51 2.76  52 2.76

  69  0.753  0.250  0.598-  57 2.70  65 2.72  52 2.74  68 2.74  70 2.75  53 2.75  48 2.76  49 2.76

  70  0.751  0.500  0.598-  66 2.71  58 2.72  71 2.75  69 2.75  54 2.76  49 2.76  50 2.76  53 2.76

  71  0.750  0.750  0.598-  68 2.74  59 2.74  67 2.75  70 2.75  55 2.75  50 2.75  51 2.76  54 2.76

 
  LATTYP: Found a simple tetragonal cell.
 ALAT       =    10.9820000000
 C/A-ratio  =     2.7317428519
  
  Lattice vectors:
  
 A1 = (  10.9820000000,   0.0000000000,   0.0000000000)
 A2 = (   0.0000000000,  10.9820000000,   0.0000000000)
 A3 = (   0.0000000000,   0.0000000000,  30.0000000000)


Analysis of symmetry for initial positions (statically):
=====================================================================
 Subroutine PRICEL returns:
 Original cell was already a primitive cell.
 

 Routine SETGRP: Setting up the symmetry group for a 
 simple tetragonal supercell.


 Subroutine GETGRP returns: Found  1 space group operations
 (whereof  1 operations were pure point group operations)
 out of a pool of 16 trial point group operations.


The static configuration has the point symmetry C_1 .


Analysis of symmetry for dynamics (positions and initial velocities):
=====================================================================
 Subroutine PRICEL returns:
 Original cell was already a primitive cell.
 

 Routine SETGRP: Setting up the symmetry group for a 
 simple tetragonal supercell.


 Subroutine GETGRP returns: Found  1 space group operations
 (whereof  1 operations were pure point group operations)
 out of a pool of 16 trial point group operations.


The dynamic configuration has the point symmetry C_1 .


Analysis of constrained symmetry for selective dynamics:
=====================================================================
 Subroutine PRICEL returns:
 Original cell was already a primitive cell.
 

 Routine SETGRP: Setting up the symmetry group for a 
 simple tetragonal supercell.


 Subroutine GETGRP returns: Found  1 space group operations
 (whereof  1 operations were pure point group operations)
 out of a pool of 16 trial point group operations.


The constrained configuration has the point symmetry C_1 .


Analysis of structural, dynamic, and magnetic symmetry:
=====================================================================
 Subroutine PRICEL returns:
 Original cell was already a primitive cell.
 

 Routine SETGRP: Setting up the symmetry group for a 
 simple tetragonal supercell.


 Subroutine GETGRP returns: Found  1 space group operations
 (whereof  1 operations were pure point group operations)
 out of a pool of 16 trial point group operations.


The magnetic configuration has the point symmetry C_1 .


 Subroutine INISYM returns: Found  1 space group operations
 (whereof  1 operations are pure point group operations),
 and found     1 'primitive' translations

 
 
 KPOINTS: K-Point Grid                            

Automatic generation of k-mesh.
Space group operators:
 irot       det(A)        alpha          n_x          n_y          n_z        tau_x        tau_y        tau_z
    1     1.000000     0.000001     1.000000     0.000000     0.000000     0.000000     0.000000     0.000000
 
 Subroutine IBZKPT returns following result:
 ===========================================
 
 Found      8 irreducible k-points:
 
 Following reciprocal coordinates:
            Coordinates               Weight
  0.125000  0.125000  0.000000      2.000000
  0.375000  0.125000  0.000000      2.000000
 -0.375000  0.125000  0.000000      2.000000
 -0.125000  0.125000  0.000000      2.000000
  0.125000  0.375000  0.000000      2.000000
  0.375000  0.375000  0.000000      2.000000
 -0.375000  0.375000  0.000000      2.000000
 -0.125000  0.375000  0.000000      2.000000
 
 Following cartesian coordinates:
            Coordinates               Weight
  0.011382  0.011382  0.000000      2.000000
  0.034147  0.011382  0.000000      2.000000
 -0.034147  0.011382  0.000000      2.000000
 -0.011382  0.011382  0.000000      2.000000
  0.011382  0.034147  0.000000      2.000000
  0.034147  0.034147  0.000000      2.000000
 -0.034147  0.034147  0.000000      2.000000
 -0.011382  0.034147  0.000000      2.000000
 


--------------------------------------------------------------------------------------------------------




 Dimension of arrays:
   k-points           NKPTS =      8   k-points in BZ     NKDIM =      8   number of bands    NBANDS=    576
   number of dos      NEDOS =   1200   number of ions     NIONS =     71
   non local maximal  LDIM  =      6   non local SUM 2l+1 LMDIM =     18
   total plane-waves  NPLWV = ******
   max r-space proj   IRMAX =   5807   max aug-charges    IRDMAX=  13820
   dimension x,y,z NGX =    72 NGY =   72 NGZ =  196
   dimension x,y,z NGXF=   144 NGYF=  144 NGZF=  392
   support grid    NGXF=   144 NGYF=  144 NGZF=  392
   ions per type =               4   1   2  64
   NGX,Y,Z   is equivalent  to a cutoff of  10.90, 10.90, 10.86 a.u.
   NGXF,Y,Z  is equivalent  to a cutoff of  21.80, 21.80, 21.72 a.u.

 SYSTEM =  Pd_100_surface                          
 POSCAR =  H N O Pd                                

 Startparameter for this run:
   NWRITE =      2    write-flag & timer
   PREC   = accura    normal or accurate (medium, high low for compatibility)
   ISTART =      0    job   : 0-new  1-cont  2-samecut
   ICHARG =      2    charge: 1-file 2-atom 10-const
   ISPIN  =      2    spin polarized calculation?
   LNONCOLLINEAR =      F non collinear calculations
   LSORBIT =      F    spin-orbit coupling
   INIWAV =      1    electr: 0-lowe 1-rand  2-diag
   LASPH  =      F    aspherical Exc in radial PAW
   METAGGA=      F    non-selfconsistent MetaGGA calc.

 Electronic Relaxation 1
   ENCUT  =  400.0 eV  29.40 Ry    5.42 a.u.  17.91 17.91 48.92*2*pi/ulx,y,z
   ENINI  =  400.0     initial cutoff
   ENAUG  =  627.1 eV  augmentation charge cutoff
   NELM   =    100;   NELMIN=  2; NELMDL=  0     # of ELM steps 
   EDIFF  = 0.1E-04   stopping-criterion for ELM
   LREAL  =      T    real-space projection
   NLSPLINE    = F    spline interpolate recip. space projectors
   LCOMPAT=      F    compatible to vasp.4.4
   GGA_COMPAT  = T    GGA compatible to vasp.4.4-vasp.4.6
   LMAXPAW     = -100 max onsite density
   LMAXMIX     =    2 max onsite mixed and CHGCAR
   VOSKOWN=      0    Vosko Wilk Nusair interpolation
   ROPT   =   -0.00025  -0.00025  -0.00025  -0.00025
 Ionic relaxation
   EDIFFG = -.2E-01   stopping-criterion for IOM
   NSW    =    500    number of steps for IOM
   NBLOCK =      1;   KBLOCK =    500    inner block; outer block 
   IBRION =      2    ionic relax: 0-MD 1-quasi-New 2-CG
   NFREE  =      1    steps in history (QN), initial steepest desc. (CG)
   ISIF   =      2    stress and relaxation
   IWAVPR =     11    prediction:  0-non 1-charg 2-wave 3-comb
   ISYM   =      2    0-nonsym 1-usesym 2-fastsym
   LCORR  =      T    Harris-Foulkes like correction to forces

   POTIM  = 0.5000    time-step for ionic-motion
   TEIN   =    0.0    initial temperature
   TEBEG  =    0.0;   TEEND  =   0.0 temperature during run
   SMASS  =  -3.00    Nose mass-parameter (am)
   estimated Nose-frequenzy (Omega)   =  0.10E-29 period in steps =****** mass=  -0.276E-26a.u.
   SCALEE = 1.0000    scale energy and forces
   NPACO  =    256;   APACO  = 16.0  distance and # of slots for P.C.
   PSTRESS=    0.0 pullay stress

  Mass of Ions in am
   POMASS =   1.00 14.00 16.00106.42
  Ionic Valenz
   ZVAL   =   1.00  5.00  6.00 10.00
  Atomic Wigner-Seitz radii
   RWIGS  =  -1.00 -1.00 -1.00 -1.00
  virtual crystal weights 
   VCA    =   1.00  1.00  1.00  1.00
   NELECT =     661.0000    total number of electrons
   NUPDOWN=      -1.0000    fix difference up-down

 DOS related values:
   EMIN   =  10.00;   EMAX   =-10.00  energy-range for DOS
   EFERMI =   0.00
   ISMEAR =     1;   SIGMA  =   0.20  broadening in eV -4-tet -1-fermi 0-gaus

 Electronic relaxation 2 (details)
   IALGO  =     68    algorithm
   LDIAG  =      T    sub-space diagonalisation (order eigenvalues)
   LSUBROT=      F    optimize rotation matrix (better conditioning)
   TURBO    =      0    0=normal 1=particle mesh
   IRESTART =      0    0=no restart 2=restart with 2 vectors
   NREBOOT  =      0    no. of reboots
   NMIN     =      0    reboot dimension
   EREF     =   0.00    reference energy to select bands
   IMIX   =      4    mixing-type and parameters
     AMIX     =   0.40;   BMIX     =  1.00
     AMIX_MAG =   1.60;   BMIX_MAG =  1.00
     AMIN     =   0.10
     WC   =   100.;   INIMIX=   1;  MIXPRE=   1;  MAXMIX= -45

 Intra band minimization:
   WEIMIN = 0.0010     energy-eigenvalue tresh-hold
   EBREAK =  0.43E-08  absolut break condition
   DEPER  =   0.30     relativ break condition  

   TIME   =   0.40     timestep for ELM

  volume/ion in A,a.u.               =      50.96       343.89
  Fermi-wavevector in a.u.,A,eV,Ry     =   0.928925  1.755414 11.740487  0.862901
  Thomas-Fermi vector in A             =   2.055153
 
 Write flags
   LWAVE        =      F    write WAVECAR
   LDOWNSAMPLE  =      F    k-point downsampling of WAVECAR
   LCHARG       =      F    write CHGCAR
   LVTOT        =      F    write LOCPOT, total local potential
   LVHAR        =      F    write LOCPOT, Hartree potential only
   LELF         =      F    write electronic localiz. function (ELF)
   LORBIT       =     11    0 simple, 1 ext, 2 COOP (PROOUT), +10 PAW based schemes


 Dipole corrections
   LMONO  =      F    monopole corrections only (constant potential shift)
   LDIPOL =      T    correct potential (dipole corrections)
   IDIPOL =      3    1-x, 2-y, 3-z, 4-all directions 
   EPSILON=  1.0000000 bulk dielectric constant

 Exchange correlation treatment:
   GGA     =    --    GGA type
   LEXCH   =     8    internal setting for exchange type
   VOSKOWN=      0    Vosko Wilk Nusair interpolation
   LHFCALC =     F    Hartree Fock is set to
   LHFONE  =     F    Hartree Fock one center treatment
   AEXX    =    0.0000 exact exchange contribution

 Linear response parameters
   LEPSILON=     F    determine dielectric tensor
   LRPA    =     F    only Hartree local field effects (RPA)
   LNABLA  =     F    use nabla operator in PAW spheres
   LVEL    =     F    velocity operator in full k-point grid
   LINTERFAST=   F  fast interpolation
   KINTER  =     0    interpolate to denser k-point grid
   CSHIFT  =0.1000    complex shift for real part using Kramers Kronig
   OMEGAMAX=  -1.0    maximum frequency
   DEG_THRESHOLD= 0.2000000E-02 threshold for treating states as degnerate
   RTIME   =   -0.100 relaxation time in fs
  (WPLASMAI=    0.000 imaginary part of plasma frequency in eV, 0.658/RTIME)
   DFIELD  = 0.0000000 0.0000000 0.0000000 field for delta impulse in time
 
 Orbital magnetization related:
   ORBITALMAG=     F  switch on orbital magnetization
   LCHIMAG   =     F  perturbation theory with respect to B field
   DQ        =  0.001000  dq finite difference perturbation B field
   LLRAUG    =     F  two centre corrections for induced B field



--------------------------------------------------------------------------------------------------------


 conjugate gradient relaxation of ions
   using selective dynamics as specified on POSCAR
 charge density and potential will be updated during run
 spin polarized calculation
 RMM-DIIS sequential band-by-band and
  variant of blocked Davidson during initial phase
 perform sub-space diagonalisation
    before iterative eigenvector-optimisation
 modified Broyden-mixing scheme, WC =      100.0
 initial mixing is a Kerker type mixing with AMIX =  0.4000 and BMIX =      1.0000
 Hartree-type preconditioning will be used
 using additional bands          245
 real space projection scheme for non local part
 use partial core corrections
 calculate Harris-corrections to forces 
   (improved forces if not selfconsistent)
 use gradient corrections 
 use of overlap-Matrix (Vanderbilt PP)
 Methfessel and Paxton  Order N= 1 SIGMA  =   0.20


--------------------------------------------------------------------------------------------------------


  energy-cutoff  :      400.00
  volume of cell :     3618.13
      direct lattice vectors                 reciprocal lattice vectors
    10.982000000  0.000000000  0.000000000     0.091058095  0.000000000  0.000000000
     0.000000000 10.982000000  0.000000000     0.000000000  0.091058095  0.000000000
     0.000000000  0.000000000 30.000000000     0.000000000  0.000000000  0.033333333

  length of vectors
    10.982000000 10.982000000 30.000000000     0.091058095  0.091058095  0.033333333


 
 k-points in units of 2pi/SCALE and weight: K-Point Grid                            
   0.01138226  0.01138226  0.00000000       0.125
   0.03414679  0.01138226  0.00000000       0.125
  -0.03414679  0.01138226  0.00000000       0.125
  -0.01138226  0.01138226  0.00000000       0.125
   0.01138226  0.03414679  0.00000000       0.125
   0.03414679  0.03414679  0.00000000       0.125
  -0.03414679  0.03414679  0.00000000       0.125
  -0.01138226  0.03414679  0.00000000       0.125
 
 k-points in reciprocal lattice and weights: K-Point Grid                            
   0.12500000  0.12500000  0.00000000       0.125
   0.37500000  0.12500000  0.00000000       0.125
  -0.37500000  0.12500000  0.00000000       0.125
  -0.12500000  0.12500000  0.00000000       0.125
   0.12500000  0.37500000  0.00000000       0.125
   0.37500000  0.37500000  0.00000000       0.125
  -0.37500000  0.37500000  0.00000000       0.125
  -0.12500000  0.37500000  0.00000000       0.125
 
 position of ions in fractional coordinates (direct lattice) 
   0.51492088  0.14539248  0.69008871
   0.28547980  0.40438107  0.69293599
   0.42616756  0.25892128  0.69188515
   0.22400520  0.28093152  0.68450370
   0.37447401  0.37831375  0.60220076
   0.50907824  0.23120797  0.68214541
   0.28428032  0.32052768  0.70395353
   0.12499955  0.12499955  0.40293227
   0.12499955  0.37499864  0.40293227
   0.12499955  0.62499774  0.40293227
   0.12499955  0.87499683  0.40293227
   0.37499864  0.12499955  0.40293227
   0.37499864  0.37499864  0.40293227
   0.37499864  0.62499774  0.40293227
   0.37499864  0.87499683  0.40293227
   0.62499774  0.12499955  0.40293227
   0.62499774  0.37499864  0.40293227
   0.62499774  0.62499774  0.40293227
   0.62499774  0.87499683  0.40293227
   0.87499683  0.12499955  0.40293227
   0.87499683  0.37499864  0.40293227
   0.87499683  0.62499774  0.40293227
   0.87499683  0.87499683  0.40293227
   0.99993380  0.00005221  0.46794491
   0.00034573  0.24981011  0.46787472
   0.00020013  0.50031877  0.46788901
   0.99984936  0.75013366  0.46794066
   0.24975472  0.00053616  0.46794312
   0.25077964  0.25062649  0.46841680
   0.25063076  0.49960651  0.46836613
   0.24951002  0.74994617  0.46786641
   0.50036765  0.00048690  0.46795366
   0.49978770  0.25058395  0.46820281
   0.49970239  0.49954588  0.46830536
   0.50029363  0.74993788  0.46786169
   0.75000359  0.00018373  0.46798166
   0.74980636  0.24986059  0.46805964
   0.74970533  0.50030126  0.46802351
   0.75009950  0.75014927  0.46803196
   0.12540390  0.12541612  0.53325531
   0.12363988  0.37561152  0.53280680
   0.12522528  0.62492886  0.53337518
   0.12507994  0.87524255  0.53290548
   0.37589195  0.12446030  0.53305458
   0.37682512  0.37463854  0.53555584
   0.37472759  0.62696615  0.53279279
   0.37473429  0.87538499  0.53257651
   0.62419555  0.12649751  0.53350403
   0.62598438  0.37465745  0.53327502
   0.62452317  0.62472388  0.53329729
   0.62506853  0.87524869  0.53275449
   0.87528973  0.12511248  0.53285704
   0.87527573  0.37518322  0.53270580
   0.87518346  0.62496618  0.53292811
   0.87517509  0.87520577  0.53304094
   0.00011599  0.00030125  0.59828514
   0.99933943  0.25027373  0.59873128
   0.99850370  0.50003613  0.59870738
   0.99978793  0.75043955  0.59824769
   0.25057334  0.99993670  0.59854073
   0.24486327  0.24650837  0.60054553
   0.24447407  0.50617146  0.60188688
   0.24996070  0.75236639  0.59859729
   0.50042269  0.99851794  0.59805045
   0.50607234  0.24616501  0.60459171
   0.50426658  0.50742611  0.60152891
   0.49985817  0.75281143  0.59850545
   0.75007718  0.99997002  0.59818254
   0.75317926  0.24971442  0.59828195
   0.75110906  0.50015997  0.59847489
   0.74999350  0.75031780  0.59808143
 
 position of ions in cartesian coordinates  (Angst):
   5.65486107  1.59670019 20.70266138
   3.13513911  4.44091287 20.78807976
   4.68017210  2.84347352 20.75655458
   2.46002510  3.08518992 20.53511108
   4.11247356  4.15464158 18.06602282
   5.59069721  2.53912589 20.46436221
   3.12196644  3.52003493 21.11860584
   1.37274503  1.37274503 12.08796804
   1.37274503  4.11823509 12.08796804
   1.37274503  6.86372514 12.08796804
   1.37274503  9.60921520 12.08796804
   4.11823509  1.37274503 12.08796804
   4.11823509  4.11823509 12.08796804
   4.11823509  6.86372514 12.08796804
   4.11823509  9.60921520 12.08796804
   6.86372514  1.37274503 12.08796804
   6.86372514  4.11823509 12.08796804
   6.86372514  6.86372514 12.08796804
   6.86372514  9.60921520 12.08796804
   9.60921520  1.37274503 12.08796804
   9.60921520  4.11823509 12.08796804
   9.60921520  6.86372514 12.08796804
   9.60921520  9.60921520 12.08796804
  10.98127300  0.00057334 14.03834728
   0.00379684  2.74341460 14.03624174
   0.00219786  5.49450078 14.03667015
  10.98034567  8.23796783 14.03821971
   2.74280632  0.00588808 14.03829365
   2.75406202  2.75238008 14.05250403
   2.75242701  5.48667868 14.05098391
   2.74011903  8.23590878 14.03599226
   5.49503749  0.00534717 14.03860969
   5.48866848  2.75191292 14.04608424
   5.48773170  5.48601284 14.04916094
   5.49422462  8.23581781 14.03585067
   8.23653946  0.00201768 14.03944970
   8.23437339  2.74396895 14.04178913
   8.23326390  5.49430846 14.04070518
   8.23759268  8.23813929 14.04095869
   1.37718559  1.37731978 15.99765934
   1.35781320  4.12496573 15.98420406
   1.37522406  6.86296871 16.00125544
   1.37362795  9.61191371 15.98716435
   4.12804543  1.36682306 15.99163727
   4.13829350  4.11428047 16.06667526
   4.11525837  6.88534228 15.98378375
   4.11533193  9.61347801 15.97729531
   6.85491548  1.38919564 16.00512105
   6.87456045  4.11448812 15.99825060
   6.85851344  6.86071767 15.99891857
   6.86450263  9.61198112 15.98263459
   9.61243184  1.37398528 15.98571129
   9.61227801  4.12026209 15.98117397
   9.61126473  6.86337858 15.98784324
   9.61117280  9.61150975 15.99122821
   0.00127380  0.00330835 17.94855420
  10.97474558  2.74850610 17.96193835
  10.96556764  5.49139676 17.96122150
  10.97967108  8.24132719 17.94743069
   2.75179643 10.98130485 17.95622181
   2.68908842  2.70715497 18.01636597
   2.68481425  5.55877493 18.05660639
   2.74506844  8.26248767 17.95791863
   5.49564201 10.96572399 17.94151359
   5.55768642  2.70338410 18.13775118
   5.53785555  5.57255350 18.04586733
   5.48944240  8.26737508 17.95516356
   8.23734763 10.98167072 17.94547614
   8.27141466  2.74236380 17.94845865
   8.24867969  5.49275675 17.95424668
   8.23642864  8.23999010 17.94244277
 


--------------------------------------------------------------------------------------------------------


 k-point  1 :   0.1250 0.1250 0.0000  plane waves:   65671
 k-point  2 :   0.3750 0.1250 0.0000  plane waves:   65719
 k-point  3 :  -0.3750 0.1250 0.0000  plane waves:   65719
 k-point  4 :  -0.1250 0.1250 0.0000  plane waves:   65671
 k-point  5 :   0.1250 0.3750 0.0000  plane waves:   65719
 k-point  6 :   0.3750 0.3750 0.0000  plane waves:   65776
 k-point  7 :  -0.3750 0.3750 0.0000  plane waves:   65776
 k-point  8 :  -0.1250 0.3750 0.0000  plane waves:   65719

 maximum and minimum number of plane-waves per node :     65776    65671

 maximum number of plane-waves:     65776
 maximum index in each direction: 
   IXMAX=   18   IYMAX=   17   IZMAX=   48
   IXMIN=  -18   IYMIN=  -18   IZMIN=  -48


 serial   3D FFT for wavefunctions
 parallel 3D FFT for charge:
    minimum data exchange during FFTs selected (reduces bandwidth)


 total amount of memory used by VASP MPI-rank0   228536. kBytes
=======================================================================

   base      :      30000. kBytes
   nonlr-proj:      51839. kBytes
   fftplans  :       5987. kBytes
   grid      :      86893. kBytes
   one-center:       2208. kBytes
   wavefun   :      51609. kBytes
 
     INWAV:  cpu time    0.0000: real time    0.0000
 Broyden mixing: mesh for mixing (old mesh)
   NGX = 35   NGY = 35   NGZ = 97
  (NGX  =144   NGY  =144   NGZ  =392)
  gives a total of 118825 points

 initial charge density was supplied:
 charge density of overlapping atoms calculated
 number of electron     661.0000000 magnetization      71.0000000
 keeping initial charge density in first step


--------------------------------------------------------------------------------------------------------


 Maximum index for non-local projection operator         5588
 Maximum index for augmentation-charges          679 (set IRDMAX)


--------------------------------------------------------------------------------------------------------


 First call to EWALD:  gamma=   0.115
 Maximum number of real-space cells 4x 4x 2
 Maximum number of reciprocal cells 2x 2x 5

    FEWALD:  cpu time    0.0140: real time    0.0070


--------------------------------------- Iteration      1(   1)  ---------------------------------------


    POTLOK:  cpu time    0.5816: real time    0.4060
    SETDIJ:  cpu time    0.0568: real time    0.0325
     EDDAV:  cpu time  123.5134: real time   61.7988
       DOS:  cpu time    0.0262: real time    0.0131
    --------------------------------------------
      LOOP:  cpu time  124.1781: real time   62.2504

 eigenvalue-minimisations  : 18432
 total energy-change (2. order) : 0.3319400E+04  (-0.2478149E+05)
 number of electron     661.0000000 magnetization      71.0000000
 augmentation part      661.0000000 magnetization      71.0000000

 DIPCOR: dipole corrections for dipol
 direction  3 min pos     1,
 dipolmoment           0.000000      0.000000     -0.000183 electrons x Angstroem
 Tr[quadrupol]    -13755.928312

 energy correction for charged system         0.000000 eV
 dipol+quadrupol energy correction           -0.000000 eV
 added-field ion interaction          0.001135 eV  (added to PSCEN)


 Free energy of the ion-electron system (eV)
  ---------------------------------------------------
  alpha Z        PSCENC =       776.22379139
  Ewald energy   TEWEN  =    384302.60367684
  -Hartree energ DENC   =   -437687.80850662
  -exchange      EXHF   =         0.00000000
  -V(xc)+E(xc)   XCENC  =     -1792.15216441
  PAW double counting   =     52530.25304117   -48553.25775720
  entropy T*S    EENTRO =        -0.00241755
  eigenvalues    EBANDS =       741.01485185
  atomic energy  EATOM  =     53002.52505022
  Solvation  Ediel_sol  =         0.00000000
  ---------------------------------------------------
  free energy    TOTEN  =      3319.39956570 eV

  energy without entropy =     3319.40198325  energy(sigma->0) =     3319.40037155


--------------------------------------------------------------------------------------------------------




--------------------------------------- Iteration      1(   2)  ---------------------------------------


     EDDAV:  cpu time  149.4191: real time   74.7815
       DOS:  cpu time    0.0048: real time    0.0024
    --------------------------------------------
      LOOP:  cpu time  149.4238: real time   74.7839

 eigenvalue-minimisations  : 20352
 total energy-change (2. order) :-0.3563416E+04  (-0.3388624E+04)
 number of electron     661.0000000 magnetization      71.0000000
 augmentation part      661.0000000 magnetization      71.0000000

 DIPCOR: dipole corrections for dipol
 direction  3 min pos     1,
 dipolmoment           0.000000      0.000000     -0.000183 electrons x Angstroem
 Tr[quadrupol]    -13755.928312

 energy correction for charged system         0.000000 eV
 dipol+quadrupol energy correction           -0.000000 eV
 added-field ion interaction          0.001135 eV  (added to PSCEN)


 Free energy of the ion-electron system (eV)
  ---------------------------------------------------
  alpha Z        PSCENC =       776.22379139
  Ewald energy   TEWEN  =    384302.60367684
  -Hartree energ DENC   =   -437687.80850662
  -exchange      EXHF   =         0.00000000
  -V(xc)+E(xc)   XCENC  =     -1792.15216441
  PAW double counting   =     52530.25304117   -48553.25775720
  entropy T*S    EENTRO =         0.08425832
  eigenvalues    EBANDS =     -2822.48820615
  atomic energy  EATOM  =     53002.52505022
  Solvation  Ediel_sol  =         0.00000000
  ---------------------------------------------------
  free energy    TOTEN  =      -244.01681643 eV

  energy without entropy =     -244.10107475  energy(sigma->0) =     -244.04490254


--------------------------------------------------------------------------------------------------------




--------------------------------------- Iteration      1(   3)  ---------------------------------------


     EDDAV:  cpu time  211.1582: real time  105.8183
       DOS:  cpu time    0.0051: real time    0.0025
    --------------------------------------------
      LOOP:  cpu time  211.1633: real time  105.8209

 eigenvalue-minimisations  : 24576
 total energy-change (2. order) :-0.1118041E+03  (-0.1104957E+03)
 number of electron     661.0000000 magnetization      71.0000000
 augmentation part      661.0000000 magnetization      71.0000000

 DIPCOR: dipole corrections for dipol
 direction  3 min pos     1,
 dipolmoment           0.000000      0.000000     -0.000183 electrons x Angstroem
 Tr[quadrupol]    -13755.928312

 energy correction for charged system         0.000000 eV
 dipol+quadrupol energy correction           -0.000000 eV
 added-field ion interaction          0.001135 eV  (added to PSCEN)


 Free energy of the ion-electron system (eV)
  ---------------------------------------------------
  alpha Z        PSCENC =       776.22379139
  Ewald energy   TEWEN  =    384302.60367684
  -Hartree energ DENC   =   -437687.80850662
  -exchange      EXHF   =         0.00000000
  -V(xc)+E(xc)   XCENC  =     -1792.15216441
  PAW double counting   =     52530.25304117   -48553.25775720
  entropy T*S    EENTRO =         0.13205038
  eigenvalues    EBANDS =     -2934.34012074
  atomic energy  EATOM  =     53002.52505022
  Solvation  Ediel_sol  =         0.00000000
  ---------------------------------------------------
  free energy    TOTEN  =      -355.82093896 eV

  energy without entropy =     -355.95298934  energy(sigma->0) =     -355.86495575


--------------------------------------------------------------------------------------------------------




--------------------------------------- Iteration      1(   4)  ---------------------------------------


     EDDAV:  cpu time  156.9714: real time   78.5058
       DOS:  cpu time    0.0050: real time    0.0025
    --------------------------------------------
      LOOP:  cpu time  156.9764: real time   78.5083

 eigenvalue-minimisations  : 21312
 total energy-change (2. order) :-0.1632810E+01  (-0.1632542E+01)
 number of electron     661.0000000 magnetization      71.0000000
 augmentation part      661.0000000 magnetization      71.0000000

 DIPCOR: dipole corrections for dipol
 direction  3 min pos     1,
 dipolmoment           0.000000      0.000000     -0.000183 electrons x Angstroem
 Tr[quadrupol]    -13755.928312

 energy correction for charged system         0.000000 eV
 dipol+quadrupol energy correction           -0.000000 eV
 added-field ion interaction          0.001135 eV  (added to PSCEN)


 Free energy of the ion-electron system (eV)
  ---------------------------------------------------
  alpha Z        PSCENC =       776.22379139
  Ewald energy   TEWEN  =    384302.60367684
  -Hartree energ DENC   =   -437687.80850662
  -exchange      EXHF   =         0.00000000
  -V(xc)+E(xc)   XCENC  =     -1792.15216441
  PAW double counting   =     52530.25304117   -48553.25775720
  entropy T*S    EENTRO =         0.13321162
  eigenvalues    EBANDS =     -2935.97409173
  atomic energy  EATOM  =     53002.52505022
  Solvation  Ediel_sol  =         0.00000000
  ---------------------------------------------------
  free energy    TOTEN  =      -357.45374872 eV

  energy without entropy =     -357.58696034  energy(sigma->0) =     -357.49815259


--------------------------------------------------------------------------------------------------------




--------------------------------------- Iteration      1(   5)  ---------------------------------------


     EDDAV:  cpu time  253.3651: real time  126.9526
       DOS:  cpu time    0.0051: real time    0.0026
    CHARGE:  cpu time    2.6850: real time    2.3474
    MIXING:  cpu time    0.0406: real time    0.0203
    --------------------------------------------
      LOOP:  cpu time  256.0960: real time  129.3229

 eigenvalue-minimisations  : 28032
 total energy-change (2. order) :-0.7519391E-01  (-0.7519353E-01)
 number of electron     660.9999468 magnetization      68.2983928
 augmentation part      261.3029119 magnetization      54.8548388

 DIPCOR: dipole corrections for dipol
 direction  3 min pos     1,
 dipolmoment           0.000000      0.000000     -0.000183 electrons x Angstroem
 Tr[quadrupol]    -13755.928312

 energy correction for charged system         0.000000 eV
 dipol+quadrupol energy correction           -0.000000 eV
 added-field ion interaction          0.001135 eV  (added to PSCEN)


 Broyden mixing:
  rms(total) = 0.61892E+01    rms(broyden)= 0.61885E+01
  rms(prec ) = 0.62503E+01
  weight for this iteration     100.00

 Free energy of the ion-electron system (eV)
  ---------------------------------------------------
  alpha Z        PSCENC =       776.22379139
  Ewald energy   TEWEN  =    384302.60367684
  -Hartree energ DENC   =   -437687.80850662
  -exchange      EXHF   =         0.00000000
  -V(xc)+E(xc)   XCENC  =     -1792.15216441
  PAW double counting   =     52530.25304117   -48553.25775720
  entropy T*S    EENTRO =         0.13323882
  eigenvalues    EBANDS =     -2936.04931284
  atomic energy  EATOM  =     53002.52505022
  Solvation  Ediel_sol  =         0.00000000
  ---------------------------------------------------
  free energy    TOTEN  =      -357.52894263 eV

  energy without entropy =     -357.66218144  energy(sigma->0) =     -357.57335557


--------------------------------------------------------------------------------------------------------




--------------------------------------- Iteration      1(   6)  ---------------------------------------


    POTLOK:  cpu time    0.3493: real time    0.2259
    SETDIJ:  cpu time    0.0260: real time    0.0157
    EDDIAG:  cpu time   15.2321: real time    7.6170
  RMM-DIIS:  cpu time   34.6698: real time   17.7419
    ORTHCH:  cpu time    4.0596: real time    2.0361
       DOS:  cpu time    0.0050: real time    0.0025
    CHARGE:  cpu time    2.4337: real time    2.1130
    MIXING:  cpu time    0.0160: real time    0.0080
    --------------------------------------------
      LOOP:  cpu time   56.7915: real time   29.7600

 eigenvalue-minimisations  : 18443
 total energy-change (2. order) : 0.4044158E+02  (-0.8274688E+01)
 number of electron     660.9999453 magnetization      65.2768639
 augmentation part      271.6301723 magnetization      49.4032852

 DIPCOR: dipole corrections for dipol
 direction  3 min pos     1,
 dipolmoment           0.000000      0.000000     -0.217970 electrons x Angstroem
 Tr[quadrupol]    -13761.865944

 energy correction for charged system         0.000000 eV
 dipol+quadrupol energy correction           -0.001188 eV
 added-field ion interaction          1.354608 eV  (added to PSCEN)


 Broyden mixing:
  rms(total) = 0.34951E+01    rms(broyden)= 0.34948E+01
  rms(prec ) = 0.36023E+01
  weight for this iteration     100.00

 eigenvalues of (default mixing * dielectric matrix)
  average eigenvalue GAMMA=   0.9894
  0.9894

 Free energy of the ion-electron system (eV)
  ---------------------------------------------------
  alpha Z        PSCENC =       777.57607654
  Ewald energy   TEWEN  =    384302.60367684
  -Hartree energ DENC   =   -437546.80106726
  -exchange      EXHF   =         0.00000000
  -V(xc)+E(xc)   XCENC  =     -1782.44955351
  PAW double counting   =     56453.96763493   -52553.92014003
  entropy T*S    EENTRO =         0.08435836
  eigenvalues    EBANDS =     -2970.67339599
  atomic energy  EATOM  =     53002.52505022
  Solvation  Ediel_sol  =         0.00000000
  ---------------------------------------------------
  free energy    TOTEN  =      -317.08735989 eV

  energy without entropy =     -317.17171825  energy(sigma->0) =     -317.11547935


--------------------------------------------------------------------------------------------------------




--------------------------------------- Iteration      1(   7)  ---------------------------------------


    POTLOK:  cpu time    0.3842: real time    0.2215
    SETDIJ:  cpu time    0.0258: real time    0.0158
    EDDIAG:  cpu time   15.1354: real time    7.5698
  RMM-DIIS:  cpu time   34.9735: real time   18.1419
    ORTHCH:  cpu time    4.0186: real time    2.0123
       DOS:  cpu time    0.0060: real time    0.0030
    CHARGE:  cpu time    2.6656: real time    2.3413
    MIXING:  cpu time    0.0047: real time    0.0023
    --------------------------------------------
      LOOP:  cpu time   57.2137: real time   30.3078

 eigenvalue-minimisations  : 18455
 total energy-change (2. order) :-0.6716394E+02  (-0.3739938E+01)
 number of electron     660.9999408 magnetization      64.1324715
 augmentation part      266.0546142 magnetization      49.9751682

 DIPCOR: dipole corrections for dipol
 direction  3 min pos     1,
 dipolmoment           0.000000      0.000000      2.184404 electrons x Angstroem
 Tr[quadrupol]    -13769.853320

 energy correction for charged system         0.000000 eV
 dipol+quadrupol energy correction           -0.119320 eV
 added-field ion interaction        -13.575321 eV  (added to PSCEN)


 Broyden mixing:
  rms(total) = 0.63660E+01    rms(broyden)= 0.63658E+01
  rms(prec ) = 0.83520E+01
  weight for this iteration     100.00

 eigenvalues of (default mixing * dielectric matrix)
  average eigenvalue GAMMA=   0.7027
  1.1382  0.2672

 Free energy of the ion-electron system (eV)
  ---------------------------------------------------
  alpha Z        PSCENC =       762.52801569
  Ewald energy   TEWEN  =    384302.60367684
  -Hartree energ DENC   =   -437893.25715484
  -exchange      EXHF   =         0.00000000
  -V(xc)+E(xc)   XCENC  =     -1781.80093492
  PAW double counting   =     59299.01427593   -55430.21236575
  entropy T*S    EENTRO =        -0.06277092
  eigenvalues    EBANDS =     -2645.58908738
  atomic energy  EATOM  =     53002.52505022
  Solvation  Ediel_sol  =         0.00000000
  ---------------------------------------------------
  free energy    TOTEN  =      -384.25129514 eV

  energy without entropy =     -384.18852422  energy(sigma->0) =     -384.23037150


--------------------------------------------------------------------------------------------------------




--------------------------------------- Iteration      1(   8)  ---------------------------------------


    POTLOK:  cpu time    0.3947: real time    0.2182
    SETDIJ:  cpu time    0.0253: real time    0.0154
    EDDIAG:  cpu time   15.1888: real time    7.5970
  RMM-DIIS:  cpu time   34.5627: real time   17.6327
    ORTHCH:  cpu time    4.0402: real time    2.0240
       DOS:  cpu time    0.0057: real time    0.0028
    CHARGE:  cpu time    2.5162: real time    2.2011
    MIXING:  cpu time    0.0046: real time    0.0023
    --------------------------------------------
      LOOP:  cpu time   56.7381: real time   29.6935

 eigenvalue-minimisations  : 18441
 total energy-change (2. order) : 0.5410453E+02  (-0.2608325E+01)
 number of electron     660.9999456 magnetization      62.0573698
 augmentation part      269.8723355 magnetization      45.1170617

 DIPCOR: dipole corrections for dipol
 direction  3 min pos     1,
 dipolmoment           0.000000      0.000000     -1.255001 electrons x Angstroem
 Tr[quadrupol]    -13772.607054

 energy correction for charged system         0.000000 eV
 dipol+quadrupol energy correction           -0.039385 eV
 added-field ion interaction          7.799402 eV  (added to PSCEN)


 Broyden mixing:
  rms(total) = 0.38506E+01    rms(broyden)= 0.38502E+01
  rms(prec ) = 0.45786E+01
  weight for this iteration     100.00

 eigenvalues of (default mixing * dielectric matrix)
  average eigenvalue GAMMA=   0.7485
  1.5232  0.5880  0.1343

 Free energy of the ion-electron system (eV)
  ---------------------------------------------------
  alpha Z        PSCENC =       783.98267245
  Ewald energy   TEWEN  =    384302.60367684
  -Hartree energ DENC   =   -437933.77653482
  -exchange      EXHF   =         0.00000000
  -V(xc)+E(xc)   XCENC  =     -1781.16556168
  PAW double counting   =     60021.81891301   -56165.89563436
  entropy T*S    EENTRO =        -0.01745555
  eigenvalues    EBANDS =     -2560.22189138
  atomic energy  EATOM  =     53002.52505022
  Solvation  Ediel_sol  =         0.00000000
  ---------------------------------------------------
  free energy    TOTEN  =      -330.14676528 eV

  energy without entropy =     -330.12930973  energy(sigma->0) =     -330.14094676


--------------------------------------------------------------------------------------------------------




--------------------------------------- Iteration      1(   9)  ---------------------------------------


    POTLOK:  cpu time    0.3982: real time    0.2183
    SETDIJ:  cpu time    0.0259: real time    0.0157
    EDDIAG:  cpu time   15.2587: real time    7.6314
  RMM-DIIS:  cpu time   34.3351: real time   17.5331
    ORTHCH:  cpu time    3.9523: real time    1.9797
       DOS:  cpu time    0.0060: real time    0.0030
    CHARGE:  cpu time    2.4757: real time    2.1546
    MIXING:  cpu time    0.0051: real time    0.0026
    --------------------------------------------
      LOOP:  cpu time   56.4570: real time   29.5385

 eigenvalue-minimisations  : 18442
 total energy-change (2. order) : 0.1579931E+02  (-0.1780397E+01)
 number of electron     660.9999461 magnetization      59.9806516
 augmentation part      272.3830584 magnetization      43.8920185

 DIPCOR: dipole corrections for dipol
 direction  3 min pos     1,
 dipolmoment           0.000000      0.000000     -0.681064 electrons x Angstroem
 Tr[quadrupol]    -13771.310189

 energy correction for charged system         0.000000 eV
 dipol+quadrupol energy correction           -0.011599 eV
 added-field ion interaction          4.232582 eV  (added to PSCEN)


 Broyden mixing:
  rms(total) = 0.31745E+01    rms(broyden)= 0.31743E+01
  rms(prec ) = 0.35769E+01
  weight for this iteration     100.00

 eigenvalues of (default mixing * dielectric matrix)
  average eigenvalue GAMMA=   0.7464
  1.8822  0.7292  0.1440  0.2302

 Free energy of the ion-electron system (eV)
  ---------------------------------------------------
  alpha Z        PSCENC =       780.44363889
  Ewald energy   TEWEN  =    384302.60367684
  -Hartree energ DENC   =   -437843.57986652
  -exchange      EXHF   =         0.00000000
  -V(xc)+E(xc)   XCENC  =     -1777.68845534
  PAW double counting   =     61090.94624093   -57252.27807208
  entropy T*S    EENTRO =        -0.06424201
  eigenvalues    EBANDS =     -2617.25542793
  atomic energy  EATOM  =     53002.52505022
  Solvation  Ediel_sol  =         0.00000000
  ---------------------------------------------------
  free energy    TOTEN  =      -314.34745701 eV

  energy without entropy =     -314.28321500  energy(sigma->0) =     -314.32604300


--------------------------------------------------------------------------------------------------------




--------------------------------------- Iteration      1(  10)  ---------------------------------------


    POTLOK:  cpu time    0.3874: real time    0.2207
    SETDIJ:  cpu time    0.0256: real time    0.0156
    EDDIAG:  cpu time   15.3046: real time    7.6538
  RMM-DIIS:  cpu time   34.3948: real time   17.5374
    ORTHCH:  cpu time    3.9521: real time    1.9796
       DOS:  cpu time    0.0051: real time    0.0025
    CHARGE:  cpu time    2.4279: real time    2.1086
    MIXING:  cpu time    0.0055: real time    0.0028
    --------------------------------------------
      LOOP:  cpu time   56.5030: real time   29.5211

 eigenvalue-minimisations  : 18440
 total energy-change (2. order) : 0.1035980E+02  (-0.7368194E+00)
 number of electron     660.9999452 magnetization      58.4421510
 augmentation part      273.1875024 magnetization      42.5784112

 DIPCOR: dipole corrections for dipol
 direction  3 min pos     1,
 dipolmoment           0.000000      0.000000     -0.485407 electrons x Angstroem
 Tr[quadrupol]    -13772.940669

 energy correction for charged system         0.000000 eV
 dipol+quadrupol energy correction           -0.005892 eV
 added-field ion interaction          3.016640 eV  (added to PSCEN)


 Broyden mixing:
  rms(total) = 0.24848E+01    rms(broyden)= 0.24846E+01
  rms(prec ) = 0.27364E+01
  weight for this iteration     100.00

 eigenvalues of (default mixing * dielectric matrix)
  average eigenvalue GAMMA=   0.7011
  2.0579  0.7929  0.3127  0.1481  0.1939

 Free energy of the ion-electron system (eV)
  ---------------------------------------------------
  alpha Z        PSCENC =       779.23340439
  Ewald energy   TEWEN  =    384302.60367684
  -Hartree energ DENC   =   -437901.15120601
  -exchange      EXHF   =         0.00000000
  -V(xc)+E(xc)   XCENC  =     -1774.83794985
  PAW double counting   =     61897.54793516   -58069.33214600
  entropy T*S    EENTRO =        -0.08672251
  eigenvalues    EBANDS =     -2540.48970034
  atomic energy  EATOM  =     53002.52505022
  Solvation  Ediel_sol  =         0.00000000
  ---------------------------------------------------
  free energy    TOTEN  =      -303.98765811 eV

  energy without entropy =     -303.90093560  energy(sigma->0) =     -303.95875060


--------------------------------------------------------------------------------------------------------




--------------------------------------- Iteration      1(  11)  ---------------------------------------


    POTLOK:  cpu time    0.3760: real time    0.2193
    SETDIJ:  cpu time    0.0259: real time    0.0159
    EDDIAG:  cpu time   15.2278: real time    7.6153
  RMM-DIIS:  cpu time   34.3709: real time   17.5293
    ORTHCH:  cpu time    3.9828: real time    1.9952
       DOS:  cpu time    0.0049: real time    0.0025
    CHARGE:  cpu time    2.2895: real time    1.9645
    MIXING:  cpu time    0.0050: real time    0.0025
    --------------------------------------------
      LOOP:  cpu time   56.2827: real time   29.3444

 eigenvalue-minimisations  : 18441
 total energy-change (2. order) : 0.3741739E+01  (-0.4690412E+00)
 number of electron     660.9999438 magnetization      57.2088094
 augmentation part      272.5860248 magnetization      40.5618087

 DIPCOR: dipole corrections for dipol
 direction  3 min pos     1,
 dipolmoment           0.000000      0.000000     -0.121018 electrons x Angstroem
 Tr[quadrupol]    -13775.097832

 energy correction for charged system         0.000000 eV
 dipol+quadrupol energy correction           -0.000366 eV
 added-field ion interaction          0.752083 eV  (added to PSCEN)


 Broyden mixing:
  rms(total) = 0.17227E+01    rms(broyden)= 0.17224E+01
  rms(prec ) = 0.19932E+01
  weight for this iteration     100.00

 eigenvalues of (default mixing * dielectric matrix)
  average eigenvalue GAMMA=   0.6551
  2.0052  0.7846  0.5635  0.1362  0.2205  0.2205

 Free energy of the ion-electron system (eV)
  ---------------------------------------------------
  alpha Z        PSCENC =       776.97437276
  Ewald energy   TEWEN  =    384302.60367684
  -Hartree energ DENC   =   -438001.51322902
  -exchange      EXHF   =         0.00000000
  -V(xc)+E(xc)   XCENC  =     -1774.15036326
  PAW double counting   =     62296.59920456   -58471.38043226
  entropy T*S    EENTRO =        -0.06011730
  eigenvalues    EBANDS =     -2431.84408204
  atomic energy  EATOM  =     53002.52505022
  Solvation  Ediel_sol  =         0.00000000
  ---------------------------------------------------
  free energy    TOTEN  =      -300.24591951 eV

  energy without entropy =     -300.18580221  energy(sigma->0) =     -300.22588041


--------------------------------------------------------------------------------------------------------




--------------------------------------- Iteration      1(  12)  ---------------------------------------


    POTLOK:  cpu time    0.3907: real time    0.2227
    SETDIJ:  cpu time    0.0255: real time    0.0157
    EDDIAG:  cpu time   15.3271: real time    7.6655
  RMM-DIIS:  cpu time   34.8126: real time   17.9829
    ORTHCH:  cpu time    4.0315: real time    2.0188
       DOS:  cpu time    0.0164: real time    0.0082
    CHARGE:  cpu time    2.4931: real time    2.1339
    MIXING:  cpu time    0.0064: real time    0.0032
    --------------------------------------------
      LOOP:  cpu time   57.1032: real time   30.0510

 eigenvalue-minimisations  : 18451
 total energy-change (2. order) :-0.2461569E+01  (-0.2767247E+00)
 number of electron     660.9999449 magnetization      56.2378347
 augmentation part      272.1230602 magnetization      40.0770000

 DIPCOR: dipole corrections for dipol
 direction  3 min pos     1,
 dipolmoment           0.000000      0.000000     -0.348969 electrons x Angstroem
 Tr[quadrupol]    -13775.410857

 energy correction for charged system         0.000000 eV
 dipol+quadrupol energy correction           -0.003045 eV
 added-field ion interaction          2.168722 eV  (added to PSCEN)


 Broyden mixing:
  rms(total) = 0.16729E+01    rms(broyden)= 0.16727E+01
  rms(prec ) = 0.18127E+01
  weight for this iteration     100.00

 eigenvalues of (default mixing * dielectric matrix)
  average eigenvalue GAMMA=   0.6215
  2.0575  0.8279  0.5631  0.3243  0.1380  0.2199  0.2199

 Free energy of the ion-electron system (eV)
  ---------------------------------------------------
  alpha Z        PSCENC =       778.38833267
  Ewald energy   TEWEN  =    384302.60367684
  -Hartree energ DENC   =   -438039.02764220
  -exchange      EXHF   =         0.00000000
  -V(xc)+E(xc)   XCENC  =     -1775.46868366
  PAW double counting   =     62343.04319845   -58513.99293348
  entropy T*S    EENTRO =        -0.02917723
  eigenvalues    EBANDS =     -2400.74931009
  atomic energy  EATOM  =     53002.52505022
  Solvation  Ediel_sol  =         0.00000000
  ---------------------------------------------------
  free energy    TOTEN  =      -302.70748848 eV

  energy without entropy =     -302.67831126  energy(sigma->0) =     -302.69776274


--------------------------------------------------------------------------------------------------------




--------------------------------------- Iteration      1(  13)  ---------------------------------------


    POTLOK:  cpu time    0.3810: real time    0.2192
    SETDIJ:  cpu time    0.0256: real time    0.0156
    EDDIAG:  cpu time   18.2209: real time    9.1239
  RMM-DIIS:  cpu time   34.3907: real time   17.5690
    ORTHCH:  cpu time    3.9480: real time    1.9772
       DOS:  cpu time    0.0054: real time    0.0027
    CHARGE:  cpu time    2.4926: real time    2.1715
    MIXING:  cpu time    0.0059: real time    0.0030
    --------------------------------------------
      LOOP:  cpu time   59.4702: real time   31.0821

 eigenvalue-minimisations  : 18450
 total energy-change (2. order) : 0.2463193E+00  (-0.1201819E+00)
 number of electron     660.9999447 magnetization      54.9183911
 augmentation part      271.5837336 magnetization      38.3966527

 DIPCOR: dipole corrections for dipol
 direction  3 min pos     1,
 dipolmoment           0.000000      0.000000     -0.128600 electrons x Angstroem
 Tr[quadrupol]    -13776.934853

 energy correction for charged system         0.000000 eV
 dipol+quadrupol energy correction           -0.000414 eV
 added-field ion interaction          0.799206 eV  (added to PSCEN)


 Broyden mixing:
  rms(total) = 0.11993E+01    rms(broyden)= 0.11992E+01
  rms(prec ) = 0.13651E+01
  weight for this iteration     100.00

 eigenvalues of (default mixing * dielectric matrix)
  average eigenvalue GAMMA=   0.6145
  1.9930  0.7614  0.7614  0.6138  0.2854  0.1834  0.1834  0.1345

 Free energy of the ion-electron system (eV)
  ---------------------------------------------------
  alpha Z        PSCENC =       777.02144878
  Ewald energy   TEWEN  =    384302.60367684
  -Hartree energ DENC   =   -438107.04091546
  -exchange      EXHF   =         0.00000000
  -V(xc)+E(xc)   XCENC  =     -1775.62857841
  PAW double counting   =     62451.13863783   -58621.77615687
  entropy T*S    EENTRO =         0.01946878
  eigenvalues    EBANDS =     -2331.32380089
  atomic energy  EATOM  =     53002.52505022
  Solvation  Ediel_sol  =         0.00000000
  ---------------------------------------------------
  free energy    TOTEN  =      -302.46116919 eV

  energy without entropy =     -302.48063796  energy(sigma->0) =     -302.46765878


--------------------------------------------------------------------------------------------------------




--------------------------------------- Iteration      1(  14)  ---------------------------------------


    POTLOK:  cpu time    0.3896: real time    0.2186
    SETDIJ:  cpu time    0.0251: real time    0.0154
    EDDIAG:  cpu time   15.3599: real time    7.6823
  RMM-DIIS:  cpu time   34.4186: real time   17.5766
    ORTHCH:  cpu time    3.9690: real time    1.9879
       DOS:  cpu time    0.0050: real time    0.0025
    CHARGE:  cpu time    2.4957: real time    2.1745
    MIXING:  cpu time    0.0062: real time    0.0031
    --------------------------------------------
      LOOP:  cpu time   56.6691: real time   29.6610

 eigenvalue-minimisations  : 18441
 total energy-change (2. order) :-0.2894831E+01  (-0.9612417E-01)
 number of electron     660.9999449 magnetization      51.9023907
 augmentation part      271.3870555 magnetization      35.6746743

 DIPCOR: dipole corrections for dipol
 direction  3 min pos     1,
 dipolmoment           0.000000      0.000000     -0.206844 electrons x Angstroem
 Tr[quadrupol]    -13777.764921

 energy correction for charged system         0.000000 eV
 dipol+quadrupol energy correction           -0.001070 eV
 added-field ion interaction          1.285466 eV  (added to PSCEN)


 Broyden mixing:
[...]
   -.329E+01 -.102E+01 0.982E+03   0.335E+01 0.995E+00 -.982E+03   -.436E-01 0.818E-02 0.132E-01   -.973E-02 0.942E-02 -.160E-02
   -.341E+01 0.402E+01 0.973E+03   0.343E+01 -.405E+01 -.973E+03   -.222E-01 0.344E-01 0.560E-02   0.559E-02 -.635E-02 0.331E-02
   -.472E+01 0.159E+01 0.982E+03   0.471E+01 -.162E+01 -.982E+03   -.478E-02 0.358E-01 -.883E-02   0.788E-02 -.719E-02 0.105E-01
   -.372E+01 -.508E+01 0.977E+03   0.370E+01 0.512E+01 -.978E+03   0.640E-02 -.458E-01 -.808E-02   0.784E-02 0.533E-02 0.233E-01
   -.310E+01 -.458E+00 0.970E+03   0.309E+01 0.472E+00 -.970E+03   0.355E-02 -.230E-01 -.219E-01   0.656E-02 0.738E-02 0.125E-01
   0.218E+02 0.206E+02 -.775E+03   -.217E+02 -.206E+02 0.775E+03   -.580E-01 -.187E-01 -.872E-01   -.482E-02 -.206E-02 -.524E-02
   0.240E+02 -.865E+01 -.753E+03   -.243E+02 0.866E+01 0.752E+03   0.354E+00 -.207E-01 0.471E+00   -.719E-02 0.142E-01 0.117E-01
   0.167E+02 -.186E+02 -.791E+03   -.167E+02 0.186E+02 0.791E+03   -.478E-01 0.475E-01 -.751E-01   -.645E-02 0.665E-02 0.114E-01
   0.132E+02 0.628E+01 -.793E+03   -.131E+02 -.627E+01 0.793E+03   -.540E-02 0.680E-02 0.519E-01   -.536E-02 -.155E-01 -.532E-02
   0.257E+01 0.250E+02 -.748E+03   -.253E+01 -.253E+02 0.748E+03   -.515E-01 0.310E+00 0.400E+00   0.114E-01 0.186E-02 0.134E-01
   0.920E+00 -.120E+02 -.680E+03   -.807E+00 0.119E+02 0.680E+03   -.121E+00 0.104E+00 0.237E+00   0.115E-01 0.688E-02 0.330E-01
   0.896E+00 -.223E+02 -.765E+03   -.913E+00 0.227E+02 0.764E+03   0.204E-01 -.375E+00 0.480E+00   0.640E-03 0.105E-02 0.204E-01
   0.296E+01 0.975E+01 -.771E+03   -.298E+01 -.974E+01 0.771E+03   0.210E-01 -.726E-02 0.610E-01   0.167E-02 -.115E-01 0.274E-02
   -.216E+02 0.188E+02 -.775E+03   0.215E+02 -.187E+02 0.775E+03   0.965E-01 -.111E+00 -.650E-01   0.730E-02 0.730E-02 0.359E-01
   -.253E+02 -.108E+02 -.765E+03   0.256E+02 0.107E+02 0.764E+03   -.297E+00 0.867E-01 0.348E+00   0.718E-02 -.261E-02 0.501E-01
   -.171E+02 -.179E+02 -.789E+03   0.171E+02 0.178E+02 0.789E+03   0.225E-01 0.598E-01 -.875E-01   0.813E-02 0.310E-02 0.375E-01
   -.145E+02 0.926E+01 -.783E+03   0.144E+02 -.926E+01 0.783E+03   0.123E-02 0.734E-02 0.476E-01   0.800E-02 -.650E-02 0.199E-01
   -.298E+01 0.141E+02 -.784E+03   0.298E+01 -.141E+02 0.784E+03   0.782E-02 -.962E-02 0.353E-01   -.127E-01 0.493E-02 0.145E-01
   -.107E+01 -.692E+01 -.775E+03   0.105E+01 0.691E+01 0.775E+03   0.230E-01 -.452E-02 0.498E-01   -.800E-02 0.709E-02 0.319E-01
   -.102E+00 -.128E+02 -.796E+03   0.110E+00 0.128E+02 0.796E+03   -.741E-02 0.148E-01 0.426E-01   -.840E-03 0.402E-02 0.305E-01
   -.161E+01 0.580E+01 -.804E+03   0.163E+01 -.579E+01 0.804E+03   -.149E-01 -.105E-02 0.139E-01   -.304E-02 -.156E-01 0.126E-01
   0.203E+02 0.321E+02 -.255E+04   -.202E+02 -.321E+02 0.254E+04   -.152E-01 -.344E-01 0.319E+01   -.149E-01 -.107E-01 0.116E-01
   0.498E+02 0.158E+02 -.252E+04   -.496E+02 -.159E+02 0.252E+04   -.245E+00 0.877E-01 0.295E+01   -.233E-01 0.167E-01 0.183E-01
   0.441E+02 -.341E+02 -.253E+04   -.438E+02 0.342E+02 0.253E+04   -.239E+00 -.877E-01 0.305E+01   -.181E-01 0.733E-02 0.100E-01
   0.177E+02 -.132E+02 -.255E+04   -.177E+02 0.132E+02 0.255E+04   -.235E-01 0.134E-01 0.321E+01   -.161E-01 -.146E-01 0.605E-02
   0.358E+02 0.680E+02 -.251E+04   -.359E+02 -.678E+02 0.251E+04   0.796E-01 -.219E+00 0.306E+01   0.881E-02 -.693E-02 0.202E-01
   0.145E+03 0.118E+03 -.243E+04   -.145E+03 -.118E+03 0.243E+04   0.412E+00 0.122E+00 0.202E+01   0.164E-01 0.177E-01 0.262E-01
   0.123E+03 -.157E+03 -.252E+04   -.123E+03 0.157E+03 0.252E+04   -.449E-01 0.499E-01 0.201E+01   0.866E-02 -.288E-03 0.158E-01
   0.200E+02 -.290E+02 -.254E+04   -.201E+02 0.288E+02 0.254E+04   0.103E+00 0.214E+00 0.307E+01   0.909E-03 -.922E-02 0.103E-01
   -.191E+02 0.813E+02 -.248E+04   0.192E+02 -.814E+02 0.248E+04   -.146E+00 0.835E-01 0.296E+01   0.129E-01 0.534E-02 0.202E-01
   -.130E+03 0.893E+02 -.242E+04   0.130E+03 -.894E+02 0.242E+04   -.552E-01 0.983E-01 0.221E+01   0.154E-01 0.133E-01 0.247E-01
   -.123E+03 -.157E+03 -.252E+04   0.123E+03 0.157E+03 0.252E+04   0.133E+00 -.550E-01 0.238E+01   0.104E-01 -.113E-01 0.201E-01
   -.176E+02 -.209E+02 -.254E+04   0.177E+02 0.208E+02 0.254E+04   -.101E+00 0.121E+00 0.305E+01   0.138E-01 -.966E-02 0.162E-01
   -.362E+02 0.394E+02 -.253E+04   0.362E+02 -.394E+02 0.253E+04   0.579E-01 -.253E-01 0.316E+01   -.813E-02 0.526E-03 0.141E-01
   -.658E+02 0.566E+01 -.250E+04   0.660E+02 -.583E+01 0.250E+04   -.104E+00 0.154E+00 0.328E+01   -.152E-01 0.134E-01 0.195E-01
   -.419E+02 -.366E+02 -.253E+04   0.418E+02 0.367E+02 0.253E+04   0.159E+00 -.145E+00 0.319E+01   -.216E-02 -.294E-02 0.148E-01
   -.201E+02 -.818E+01 -.255E+04   0.200E+02 0.819E+01 0.255E+04   0.218E-01 -.397E-02 0.320E+01   0.131E-02 -.103E-01 0.138E-01
 -----------------------------------------------------------------------------------------------
   0.386E+02 0.757E+01 0.353E+02   0.956E-12 0.426E-13 -.146E-10   -.386E+02 -.758E+01 -.357E+02   0.288E-01 0.971E-02 0.381E+00
 
 
 POSITION                                       TOTAL-FORCE (eV/Angst)
 -----------------------------------------------------------------------------------
      5.65488      1.59588     20.70253        -0.001455     -0.006925     -0.000550
      3.13515      4.44056     20.78896        -0.001856     -0.015757      0.011117
      4.68007      2.84269     20.75669        -0.011787     -0.006028      0.005548
      2.45964      3.08439     20.53518         0.000658     -0.002642      0.003702
      4.11192      4.15456     18.06666        -0.003089      0.001205     -0.008043
      5.59023      2.53865     20.46479         0.008039     -0.009120     -0.000585
      3.12155      3.51904     21.11903        -0.006780     -0.003286     -0.001301
      1.37275      1.37275     12.08797        -0.012919     -0.015088     -0.007975
      1.37275      4.11824     12.08797         0.030696      0.007142      0.051076
      1.37275      6.86373     12.08797        -0.017071      0.018457     -0.016454
      1.37275      9.60922     12.08797        -0.016381     -0.002430     -0.024301
      4.11824      1.37275     12.08797        -0.001931      0.026838      0.037033
      4.11824      4.11824     12.08797         0.003114      0.002936     -0.014917
      4.11824      6.86373     12.08797        -0.008053     -0.022804      0.047350
      4.11824      9.60922     12.08797        -0.001497      0.008598      0.024419
      6.86373      1.37275     12.08797         0.026383     -0.016275     -0.017216
      6.86373      4.11824     12.08797        -0.016251      0.003583      0.035364
      6.86373      6.86373     12.08797         0.021740      0.016615     -0.008007
      6.86373      9.60922     12.08797         0.014854      0.005224     -0.021299
      9.60922      1.37275     12.08797        -0.003758     -0.010262     -0.021782
      9.60922      4.11824     12.08797        -0.006327      0.002880      0.027264
      9.60922      6.86373     12.08797         0.003034      0.014997     -0.021161
      9.60922      9.60922     12.08797        -0.001329      0.002303     -0.041267
     10.98132      0.00024     14.03955         0.001168      0.000231      0.003998
      0.00378      2.74299     14.03609         0.000832     -0.000764     -0.001961
      0.00243      5.49505     14.03701         0.000479      0.002828      0.000360
     10.98001      8.23837     14.03865         0.002247     -0.000038      0.000953
      2.74273      0.00576     14.03836        -0.000914     -0.000738     -0.000628
      2.75436      2.75244     14.05129         0.000082     -0.001818     -0.005397
      2.75271      5.48609     14.05144         0.001197     -0.000077     -0.001568
      2.74098      8.23567     14.03627         0.000630     -0.001886     -0.002314
      5.49490      0.00544     14.03899         0.000352      0.001936     -0.000563
      5.48849      2.75196     14.04627         0.003351     -0.001733     -0.000892
      5.48758      5.48573     14.04943         0.001295      0.000025      0.000963
      5.49434      8.23580     14.03588         0.001099     -0.001684     -0.002109
      8.23648      0.00195     14.03971        -0.000530      0.001029     -0.000329
      8.23450      2.74414     14.04084        -0.000828      0.000193     -0.003131
      8.23298      5.49439     14.04076        -0.000928     -0.000850      0.000051
      8.23731      8.23764     14.04009        -0.001176     -0.001210     -0.003899
      1.37790      1.37820     15.99755         0.001729      0.002566     -0.002978
      1.35760      4.12522     15.98364         0.000703      0.001420     -0.003374
      1.37653      6.86306     16.00121        -0.000018      0.000927     -0.003704
      1.37386      9.61178     15.98715         0.002176      0.000772      0.000582
      4.12804      1.36666     15.99128        -0.001233      0.001592     -0.000121
      4.13869      4.11404     16.06532         0.001440     -0.002215      0.018058
      4.11504      6.88573     15.98413         0.004607     -0.003118      0.002617
      4.11542      9.61305     15.97683         0.000856      0.000085     -0.000743
      6.85497      1.38954     16.00586         0.000066      0.001818      0.000744
      6.87524      4.11392     15.99854         0.000434     -0.001097      0.000750
      6.85838      6.86101     15.99870        -0.000201      0.000544     -0.000129
      6.86464      9.61222     15.98167         0.001887      0.000203     -0.001951
      9.61215      1.37439     15.98534        -0.000737      0.002250     -0.000645
      9.61238      4.12017     15.98086         0.001053      0.000096     -0.003567
      9.61092      6.86353     15.98757        -0.000971      0.000635      0.000192
      9.61119      9.61126     15.99079        -0.002755     -0.002024      0.000515
      0.00119      0.00313     17.94793        -0.000545     -0.000443     -0.006610
     10.97488      2.74864     17.96182        -0.004373      0.000753     -0.001524
     10.96540      5.49142     17.96079        -0.002425      0.000555     -0.004601
     10.97988      8.24091     17.94721         0.000150     -0.002629     -0.003340
      2.75175     10.98130     17.95617        -0.000450     -0.001117     -0.001162
      2.68728      2.70688     18.01633         0.000654      0.009490     -0.001985
      2.68407      5.55984     18.05647         0.006480     -0.005268     -0.001882
      2.74492      8.26224     17.95746        -0.000010      0.002938     -0.000478
      5.49518     10.96574     17.94089        -0.002709     -0.002829     -0.004566
      5.55800      2.70266     18.13853        -0.008701      0.003747      0.004447
      5.53873      5.57298     18.04608        -0.006209     -0.008915     -0.001436
      5.48936      8.26724     17.95496         0.000824      0.001928     -0.002103
      8.23733     10.98186     17.94528        -0.000044      0.000277     -0.002770
      8.27120      2.74261     17.94855         0.001597      0.001039      0.002035
      8.24859      5.49220     17.95413         0.001403     -0.001468     -0.001861
      8.23631      8.24027     17.94292        -0.001066      0.001880      0.000043
 -----------------------------------------------------------------------------------
    total drift:                                0.004259     -0.002411     -0.001376


--------------------------------------------------------------------------------------------------------



  FREE ENERGIE OF THE ION-ELECTRON SYSTEM (eV)
  ---------------------------------------------------
  free  energy   TOTEN  =      -373.91914047 eV

  energy  without entropy=     -373.79554758  energy(sigma->0) =     -373.87794284
 
 d Force = 0.4340810E-04[ 0.215E-04, 0.653E-04]  d Energy = 0.4703312E-04-0.363E-05
 d Force =-0.1626391E+01[-0.163E+01,-0.163E+01]  d Ewald  =-0.1626391E+01-0.490E-07


--------------------------------------------------------------------------------------------------------


    POTLOK:  cpu time    0.2145: real time    0.2043


--------------------------------------------------------------------------------------------------------




--------------------------------------------------------------------------------------------------------


  
 reached required accuracy - stopping structural energy minimisation
     LOOP+:  cpu time  528.9204: real time  279.2821
    4ORBIT:  cpu time    0.0000: real time    0.0000
 


 total charge     
 
# of ion       s       p       d       tot
------------------------------------------
    1        0.619   0.114   0.000   0.733
    2        0.613   0.112   0.000   0.725
    3        0.570   0.112   0.000   0.682
    4        0.606   0.111   0.000   0.716
    5        1.289   2.248   0.000   3.537
    6        1.586   3.615   0.000   5.202
    7        1.590   3.622   0.000   5.212
    8        0.444   0.308   8.523   9.275
    9        0.444   0.307   8.521   9.272
   10        0.445   0.307   8.523   9.276
   11        0.445   0.309   8.519   9.274
   12        0.445   0.307   8.521   9.273
   13        0.446   0.308   8.521   9.275
   14        0.444   0.307   8.521   9.272
   15        0.446   0.307   8.522   9.275
   16        0.445   0.308   8.523   9.276
   17        0.445   0.307   8.521   9.274
   18        0.444   0.308   8.523   9.275
   19        0.445   0.309   8.520   9.274
   20        0.445   0.309   8.520   9.274
   21        0.446   0.307   8.522   9.275
   22        0.445   0.309   8.520   9.274
   23        0.446   0.309   8.521   9.276
   24        0.487   0.480   8.461   9.427
   25        0.486   0.479   8.461   9.426
   26        0.486   0.480   8.459   9.425
   27        0.486   0.479   8.461   9.426
   28        0.486   0.479   8.460   9.424
   29        0.484   0.475   8.463   9.422
   30        0.484   0.475   8.463   9.422
   31        0.486   0.480   8.459   9.425
   32        0.486   0.479   8.460   9.425
   33        0.485   0.478   8.465   9.428
   34        0.484   0.476   8.463   9.423
   35        0.486   0.479   8.461   9.426
   36        0.486   0.478   8.462   9.426
   37        0.485   0.479   8.460   9.424
   38        0.485   0.478   8.461   9.424
   39        0.486   0.479   8.461   9.427
   40        0.486   0.476   8.460   9.423
   41        0.477   0.462   8.479   9.418
   42        0.486   0.475   8.460   9.421
   43        0.485   0.478   8.458   9.421
   44        0.477   0.460   8.480   9.417
   45        0.486   0.545   8.492   9.524
   46        0.476   0.461   8.479   9.416
   47        0.486   0.479   8.467   9.432
   48        0.485   0.473   8.457   9.415
   49        0.477   0.460   8.477   9.414
   50        0.486   0.475   8.459   9.420
   51        0.486   0.479   8.457   9.422
   52        0.485   0.479   8.457   9.421
   53        0.486   0.479   8.466   9.430
   54        0.485   0.478   8.457   9.420
   55        0.488   0.479   8.457   9.424
   56        0.444   0.308   8.519   9.272
   57        0.454   0.317   8.523   9.294
   58        0.451   0.314   8.524   9.290
   59        0.445   0.309   8.519   9.272
   60        0.451   0.314   8.526   9.291
   61        0.458   0.416   8.536   9.409
   62        0.456   0.415   8.530   9.402
   63        0.451   0.314   8.525   9.290
   64        0.456   0.321   8.530   9.307
   65        0.406   0.426   8.485   9.318
   66        0.450   0.408   8.531   9.389
   67        0.454   0.317   8.523   9.294
   68        0.445   0.310   8.521   9.276
   69        0.451   0.315   8.527   9.293
   70        0.450   0.312   8.527   9.289
   71        0.445   0.309   8.518   9.273
--------------------------------------------------
tot         36.665  35.578 543.548 615.792
 


 magnetization (x)
 
# of ion       s       p       d       tot
------------------------------------------
    1       -0.000   0.000   0.000   0.000
    2       -0.000  -0.000   0.000  -0.000
    3       -0.000   0.000   0.000  -0.000
    4       -0.000  -0.000   0.000  -0.000
    5        0.001  -0.011   0.000  -0.010
    6        0.000   0.003   0.000   0.003
    7       -0.000  -0.000   0.000  -0.000
    8       -0.000  -0.004   0.196   0.192
    9       -0.001  -0.003   0.197   0.193
   10       -0.000  -0.004   0.196   0.193
   11       -0.001  -0.003   0.214   0.209
   12       -0.001  -0.003   0.199   0.195
   13        0.000  -0.003   0.206   0.204
   14       -0.001  -0.003   0.197   0.193
   15       -0.001  -0.004   0.188   0.183
   16       -0.000  -0.003   0.200   0.196
   17       -0.001  -0.003   0.199   0.196
   18       -0.000  -0.004   0.197   0.193
   19       -0.001  -0.003   0.214   0.209
   20       -0.001  -0.003   0.214   0.209
   21       -0.001  -0.004   0.188   0.184
   22       -0.001  -0.003   0.213   0.209
   23        0.002  -0.004   0.242   0.240
   24       -0.002  -0.006   0.308   0.300
   25       -0.002  -0.006   0.285   0.277
   26       -0.002  -0.006   0.286   0.279
   27       -0.002  -0.006   0.310   0.303
   28       -0.002  -0.006   0.287   0.280
   29       -0.002  -0.005   0.269   0.262
   30       -0.001  -0.005   0.269   0.263
   31       -0.002  -0.006   0.287   0.279
   32       -0.002  -0.006   0.287   0.280
   33       -0.002  -0.005   0.267   0.260
   34       -0.002  -0.005   0.271   0.264
   35       -0.002  -0.006   0.283   0.276
   36       -0.001  -0.006   0.314   0.306
   37       -0.002  -0.006   0.288   0.280
   38       -0.002  -0.006   0.285   0.278
   39       -0.002  -0.006   0.309   0.301
   40       -0.002  -0.005   0.256   0.249
   41       -0.001  -0.005   0.253   0.247
   42       -0.002  -0.005   0.261   0.254
   43       -0.002  -0.006   0.293   0.286
   44       -0.001  -0.005   0.256   0.250
   45       -0.002  -0.005   0.061   0.054
   46       -0.001  -0.005   0.255   0.249
   47       -0.002  -0.006   0.269   0.262
   48       -0.002  -0.005   0.264   0.256
   49       -0.001  -0.005   0.257   0.251
   50       -0.002  -0.005   0.258   0.251
   51       -0.002  -0.006   0.292   0.285
   52       -0.002  -0.006   0.293   0.285
   53       -0.002  -0.006   0.269   0.262
   54       -0.002  -0.006   0.293   0.286
   55       -0.001  -0.006   0.309   0.302
   56       -0.000  -0.003   0.200   0.197
   57       -0.001  -0.003   0.173   0.169
   58       -0.001  -0.003   0.173   0.169
   59       -0.000  -0.003   0.203   0.200
   60       -0.001  -0.003   0.172   0.168
   61       -0.002  -0.003   0.057   0.052
   62       -0.002  -0.003   0.049   0.045
   63       -0.000  -0.003   0.173   0.170
   64       -0.001  -0.003   0.180   0.176
   65       -0.002  -0.003   0.066   0.061
   66       -0.002  -0.003   0.057   0.052
   67       -0.001  -0.003   0.174   0.171
   68       -0.001  -0.003   0.201   0.197
   69       -0.001  -0.003   0.186   0.182
   70       -0.001  -0.003   0.177   0.173
   71       -0.000  -0.003   0.203   0.200
--------------------------------------------------
tot         -0.074  -0.286  14.450  14.090
 

 total amount of memory used by VASP MPI-rank0   228536. kBytes
=======================================================================

   base      :      30000. kBytes
   nonlr-proj:      51839. kBytes
   fftplans  :       5987. kBytes
   grid      :      86893. kBytes
   one-center:       2208. kBytes
   wavefun   :      51609. kBytes
 
  
  
 General timing and accounting informations for this job:
 ========================================================
  
                  Total CPU time used (sec):     5733.149
                            User time (sec):     5386.519
                          System time (sec):      346.631
                         Elapsed time (sec):     3042.271
  
                   Maximum memory used (kb):      715492.
                   Average memory used (kb):           0.
  
                          Minor page faults:       933373
                          Major page faults:            0
                 Voluntary context switches:        25018
