 vasp.5.4.4.18Apr17-6-g9f103f2a35 (build Jun 11 2020 13:42:08) complex          
  
 executed on             LinuxIFC date 2021.12.06  21:29:06
 running on   80 total cores
 each image running on   20 cores
 distrk:  each k-point on   20 cores,    1 groups
 distr:  one band on NCORES_PER_BAND=  10 cores,    2 groups


--------------------------------------------------------------------------------------------------------


 INCAR:
 POTCAR:    PAW_PBE N 08Apr2002                   
 POTCAR:    PAW_PBE O 08Apr2002                   
 POTCAR:    PAW_PBE Pd 04Jan2005                  

 ----------------------------------------------------------------------------- 
|                                                                             |
|           W    W    AA    RRRRR   N    N  II  N    N   GGGG   !!!           |
|           W    W   A  A   R    R  NN   N  II  NN   N  G    G  !!!           |
|           W    W  A    A  R    R  N N  N  II  N N  N  G       !!!           |
|           W WW W  AAAAAA  RRRRR   N  N N  II  N  N N  G  GGG   !            |
|           WW  WW  A    A  R   R   N   NN  II  N   NN  G    G                |
|           W    W  A    A  R    R  N    N  II  N    N   GGGG   !!!           |
|                                                                             |
|      For optimal performance we recommend to set                            |
|        NCORE= 4 - approx SQRT( number of cores)                             |
|      NCORE specifies how many cores store one orbital (NPAR=cpu/NCORE).     |
|      This setting can  greatly improve the performance of VASP for DFT.     |
|      The default,   NCORE=1            might be grossly inefficient         |
|      on modern multi-core architectures or massively parallel machines.     |
|      Do your own testing !!!!                                               |
|      Unfortunately you need to use the default for GW and RPA calculations. |
|      (for HF NCORE is supported but not extensively tested yet)             |
|                                                                             |
 ----------------------------------------------------------------------------- 

 POTCAR:    PAW_PBE N 08Apr2002                   
   VRHFIN =N: s2p3                                                              
   LEXCH  = PE                                                                  
   EATOM  =   264.5486 eV,   19.4438 Ry                                         
                                                                                
   TITEL  = PAW_PBE N 08Apr2002                                                 
   LULTRA =        F    use ultrasoft PP ?                                      
   IUNSCR =        1    unscreen: 0-lin 1-nonlin 2-no                           
   RPACOR =    1.200    partial core radius                                     
   POMASS =   14.001; ZVAL   =    5.000    mass and valenz                      
   RCORE  =    1.500    outmost cutoff radius                                   
   RWIGS  =    1.400; RWIGS  =    0.741    wigner-seitz radius (au A)           
   ENMAX  =  400.000; ENMIN  =  300.000 eV                                      
   ICORE  =        2    local potential                                         
   LCOR   =        T    correct aug charges                                     
   LPAW   =        T    paw PP                                                  
   EAUG   =  627.112                                                            
   DEXC   =    0.000                                                            
   RMAX   =    1.529    core radius for proj-oper                               
   RAUG   =    1.300    factor for augmentation sphere                          
   RDEP   =    1.514    radius for radial grids                                 
   RDEPT  =    1.338    core radius for aug-charge                              
                                                                                
   Atomic configuration                                                         
    4 entries                                                                   
     n  l   j            E        occ.                                          
     1  0  0.50      -384.7179   2.0000                                         
     2  0  0.50       -18.5828   2.0000                                         
     2  1  0.50        -7.0898   3.0000                                         
     3  2  1.50        -6.8029   0.0000                                         
   Description                                                                  
     l       E           TYP  RCUT    TYP  RCUT                                 
     0    -18.5828119     23  1.200                                             
     0    -13.5018863     23  1.200                                             
     1     -7.0897853     23  1.500                                             
     1      9.5240782     23  1.500                                             
     2     -6.8029130      7  1.500                                             
  local pseudopotential read in
  partial core-charges read in
  partial kinetic energy density read in
  atomic valenz-charges read in
  non local Contribution for L=           0  read in
    real space projection operators read in
  non local Contribution for L=           0  read in
    real space projection operators read in
  non local Contribution for L=           1  read in
    real space projection operators read in
  non local Contribution for L=           1  read in
    real space projection operators read in
    PAW grid and wavefunctions read in
 
   number of l-projection  operators is LMAX  =           4
   number of lm-projection operators is LMMAX =           8
 
 POTCAR:    PAW_PBE O 08Apr2002                   
   VRHFIN =O: s2p4                                                              
   LEXCH  = PE                                                                  
   EATOM  =   432.3788 eV,   31.7789 Ry                                         
                                                                                
   TITEL  = PAW_PBE O 08Apr2002                                                 
   LULTRA =        F    use ultrasoft PP ?                                      
   IUNSCR =        1    unscreen: 0-lin 1-nonlin 2-no                           
   RPACOR =    1.200    partial core radius                                     
   POMASS =   16.000; ZVAL   =    6.000    mass and valenz                      
   RCORE  =    1.520    outmost cutoff radius                                   
   RWIGS  =    1.550; RWIGS  =    0.820    wigner-seitz radius (au A)           
   ENMAX  =  400.000; ENMIN  =  300.000 eV                                      
   ICORE  =        2    local potential                                         
   LCOR   =        T    correct aug charges                                     
   LPAW   =        T    paw PP                                                  
   EAUG   =  605.392                                                            
   DEXC   =    0.000                                                            
   RMAX   =    1.553    core radius for proj-oper                               
   RAUG   =    1.300    factor for augmentation sphere                          
   RDEP   =    1.550    radius for radial grids                                 
   RDEPT  =    1.329    core radius for aug-charge                              
                                                                                
   Atomic configuration                                                         
    4 entries                                                                   
     n  l   j            E        occ.                                          
     1  0  0.50      -514.6923   2.0000                                         
     2  0  0.50       -23.9615   2.0000                                         
     2  1  0.50        -9.0305   4.0000                                         
     3  2  1.50        -9.5241   0.0000                                         
   Description                                                                  
     l       E           TYP  RCUT    TYP  RCUT                                 
     0    -23.9615318     23  1.200                                             
     0     -9.5240782     23  1.200                                             
     1     -9.0304911     23  1.520                                             
     1      8.1634956     23  1.520                                             
     2     -9.5240782      7  1.500                                             
  local pseudopotential read in
  partial core-charges read in
  partial kinetic energy density read in
  kinetic energy density of atom read in
  atomic valenz-charges read in
  non local Contribution for L=           0  read in
    real space projection operators read in
  non local Contribution for L=           0  read in
    real space projection operators read in
  non local Contribution for L=           1  read in
    real space projection operators read in
  non local Contribution for L=           1  read in
    real space projection operators read in
    PAW grid and wavefunctions read in
 
   number of l-projection  operators is LMAX  =           4
   number of lm-projection operators is LMMAX =           8
 
 POTCAR:    PAW_PBE Pd 04Jan2005                  
   VRHFIN =Pd : s1 d9                                                           
   LEXCH  = PE                                                                  
   EATOM  =   809.7530 eV,   59.5152 Ry                                         
                                                                                
   TITEL  = PAW_PBE Pd 04Jan2005                                                
   LULTRA =        F    use ultrasoft PP ?                                      
   IUNSCR =        1    unscreen: 0-lin 1-nonlin 2-no                           
   RPACOR =    2.000    partial core radius                                     
   POMASS =  106.420; ZVAL   =   10.000    mass and valenz                      
   RCORE  =    2.600    outmost cutoff radius                                   
   RWIGS  =    2.710; RWIGS  =    1.434    wigner-seitz radius (au A)           
   ENMAX  =  250.925; ENMIN  =  188.194 eV                                      
   ICORE  =        3    local potential                                         
   LCOR   =        T    correct aug charges                                     
   LPAW   =        T    paw PP                                                  
   EAUG   =  416.230                                                            
   DEXC   =    0.000                                                            
   RMAX   =    2.653    core radius for proj-oper                               
   RAUG   =    1.300    factor for augmentation sphere                          
   RDEP   =    2.734    radius for radial grids                                 
   RDEPT  =    2.103    core radius for aug-charge                              
                                                                                
   Atomic configuration                                                         
   12 entries                                                                   
     n  l   j            E        occ.                                          
     1  0  0.50    -24164.6631   2.0000                                         
     2  0  0.50     -3530.9218   2.0000                                         
     2  1  1.50     -3165.6822   6.0000                                         
     3  0  0.50      -639.4577   2.0000                                         
     3  1  1.50      -519.4532   6.0000                                         
     3  2  2.50      -328.9757  10.0000                                         
     4  0  0.50       -88.7014   2.0000                                         
     4  1  1.50       -54.4540   6.0000                                         
     4  2  2.50        -6.6878   9.0000                                         
     5  0  0.50        -4.3543   1.0000                                         
     5  1  0.50        -1.3606   0.0000                                         
     4  3  2.50        -1.3606   0.0000                                         
   Description                                                                  
     l       E           TYP  RCUT    TYP  RCUT                                 
     2     -6.6878251     23  2.400                                             
     2     -8.0484077     23  2.400                                             
     0     -4.3542939     23  2.400                                             
     0      4.3406793     23  2.400                                             
     1     -4.0817478     23  2.600                                             
     1     15.8380318     23  2.600                                             
     3     -4.0817478     23  2.400                                             
  local pseudopotential read in
  partial core-charges read in
  partial kinetic energy density read in
  atomic valenz-charges read in
  non local Contribution for L=           2  read in
    real space projection operators read in
  non local Contribution for L=           2  read in
    real space projection operators read in
  non local Contribution for L=           0  read in
    real space projection operators read in
  non local Contribution for L=           0  read in
    real space projection operators read in
  non local Contribution for L=           1  read in
    real space projection operators read in
  non local Contribution for L=           1  read in
    real space projection operators read in
    PAW grid and wavefunctions read in
 
   number of l-projection  operators is LMAX  =           6
   number of lm-projection operators is LMMAX =          18
 
 Optimization of the real space projectors (new method)

 maximal supplied QI-value         = 25.13
 optimisation between [QCUT,QGAM] = [ 10.05, 20.36] = [ 28.30,116.06] Ry 
 Optimized for a Real-space Cutoff    1.70 Angstroem

   l    n(q)    QCUT    max X(q) W(low)/X(q) W(high)/X(q)  e(spline) 
   0     10    10.053    79.467    0.61E-04    0.98E-04    0.61E-06
   0     10    10.053    66.151    0.60E-04    0.98E-04    0.61E-06
   1     10    10.053     8.350    0.17E-03    0.71E-03    0.45E-05
   1     10    10.053     5.531    0.18E-03    0.77E-03    0.49E-05
 Optimization of the real space projectors (new method)

 maximal supplied QI-value         = 24.76
 optimisation between [QCUT,QGAM] = [ 10.15, 20.30] = [ 28.85,115.39] Ry 
 Optimized for a Real-space Cutoff    1.51 Angstroem

   l    n(q)    QCUT    max X(q) W(low)/X(q) W(high)/X(q)  e(spline) 
   0      9    10.150    20.381    0.17E-03    0.18E-03    0.41E-06
   0      9    10.150    15.268    0.18E-03    0.20E-03    0.43E-06
   1      9    10.150     5.964    0.16E-03    0.20E-03    0.36E-06
   1      9    10.150     5.382    0.13E-03    0.16E-03    0.33E-06
 Optimization of the real space projectors (new method)

 maximal supplied QI-value         = 14.36
 optimisation between [QCUT,QGAM] = [ 10.20, 20.39] = [ 29.12,116.47] Ry 
 Optimized for a Real-space Cutoff    1.55 Angstroem

   l    n(q)    QCUT    max X(q) W(low)/X(q) W(high)/X(q)  e(spline) 
   2      9    10.197    59.108    0.12E-03    0.40E-04    0.11E-06
   2      9    10.197    58.101    0.12E-03    0.39E-04    0.12E-06
   0      9    10.197   102.235    0.41E-04    0.86E-05    0.83E-07
   0      9    10.197    58.388    0.37E-04    0.79E-05    0.78E-07
   1      9    10.197    22.191    0.25E-03    0.13E-03    0.84E-07
   1      9    10.197    15.590    0.21E-03    0.11E-03    0.74E-07
  PAW_PBE N 08Apr2002                   :
 energy of atom  1       EATOM= -264.5486
 kinetic energy error for atom=    0.0736 (will be added to EATOM!!)
  PAW_PBE O 08Apr2002                   :
 energy of atom  2       EATOM= -432.3788
 kinetic energy error for atom=    0.1156 (will be added to EATOM!!)
  PAW_PBE Pd 04Jan2005                  :
 energy of atom  3       EATOM= -809.7530
 kinetic energy error for atom=    0.0091 (will be added to EATOM!!)
 
 
 POSCAR: N O Pd                                  
  positions in direct lattice
  velocities in cartesian coordinates
 exchange correlation table for  LEXCH =        8
   RHO(1)=    0.500       N(1)  =     2000
   RHO(2)=  100.500       N(2)  =     4000

 VTST: version 3.1, (03/28/14)

 CHAIN: initializing optimizer
 
 OPT: Using VASP QUASI-newton optimizer
 CHAIN: Read ICHAIN            0
 CHAIN: Running the NEB
 NEB:          SPRING     -5.000000
 NEB:          LCLIMB      T
 NEB:     LTANGENTOLD      F
 NEB:           LDNEB      F
 NEB:        LDNEBORG      F
 NEB:        LNEBCELL      F
 NEB:          EFIRST   -460.054627
 NEB:           ELAST   -459.588629
 
 POSCAR: N O Pd                                  
  positions in direct lattice
  No initial velocities read in
 
 POSCAR: N O Pd                                  
  positions in direct lattice
  No initial velocities read in
 


--------------------------------------------------------------------------------------------------------


 ion  position               nearest neighbor table
   1  0.433  0.401  0.645-  10 1.20  75 2.02  76 2.03  72 2.46
   2  0.395  0.925  0.643-  11 1.21  70 2.05  74 2.06  77 2.26
   3  0.756  0.372  0.650-  12 1.19  80 1.95  79 1.99
   4  0.904  0.913  0.643-  13 1.21  66 2.01  78 2.14  69 2.23
   5  0.597  0.673  0.643-  14 1.21  77 2.04  81 2.06  76 2.24
   6  0.658  0.091  0.645-  15 1.21  78 2.05  74 2.14  79 2.18
   7  0.125  0.740  0.650-  16 1.19  73 1.95  69 2.02
   8  0.120  0.277  0.648-  17 1.20  67 2.02  71 2.03
   9  0.125  0.463  0.642-  68 1.86  72 1.89
  10  0.443  0.394  0.685-   1 1.20
  11  0.387  0.926  0.683-   2 1.21
  12  0.735  0.382  0.689-   3 1.19
  13  0.911  0.925  0.683-   4 1.21
  14  0.603  0.676  0.683-   5 1.21
  15  0.658  0.087  0.685-   6 1.21
  16  0.136  0.769  0.688-   7 1.19
  17  0.119  0.238  0.685-   8 1.20
  18  0.125  0.125  0.403-  19 2.75  22 2.75  21 2.75  30 2.75  35 2.75  38 2.75  39 2.76  34 2.77

  19  0.125  0.375  0.403-  18 2.75  20 2.75  23 2.75  31 2.75  39 2.75  35 2.76  40 2.76  36 2.76

  20  0.125  0.625  0.403-  40 2.75  21 2.75  24 2.75  19 2.75  32 2.75  41 2.75  37 2.76  36 2.76

  21  0.125  0.875  0.403-  20 2.75  25 2.75  18 2.75  33 2.75  41 2.75  34 2.76  38 2.76  37 2.77

  22  0.375  0.125  0.403-  38 2.74  23 2.75  26 2.75  18 2.75  25 2.75  42 2.75  39 2.76  43 2.77

  23  0.375  0.375  0.403-  19 2.75  22 2.75  24 2.75  27 2.75  43 2.75  39 2.75  44 2.76  40 2.77

  24  0.375  0.625  0.403-  44 2.74  23 2.75  25 2.75  28 2.75  20 2.75  40 2.75  41 2.76  45 2.77

  25  0.375  0.875  0.403-  45 2.74  24 2.75  29 2.75  21 2.75  22 2.75  38 2.75  41 2.76  42 2.78

  26  0.625  0.125  0.403-  42 2.74  27 2.75  30 2.75  22 2.75  29 2.75  47 2.75  46 2.76  43 2.77

  27  0.625  0.375  0.403-  23 2.75  26 2.75  28 2.75  31 2.75  43 2.75  47 2.75  48 2.76  44 2.77

  28  0.625  0.625  0.403-  44 2.74  27 2.75  29 2.75  32 2.75  24 2.75  49 2.75  48 2.76  45 2.77

  29  0.625  0.875  0.403-  25 2.75  28 2.75  33 2.75  26 2.75  45 2.75  49 2.76  46 2.76  42 2.77

  30  0.875  0.125  0.403-  26 2.75  31 2.75  18 2.75  33 2.75  47 2.75  35 2.75  46 2.76  34 2.76

  31  0.875  0.375  0.403-  27 2.75  30 2.75  32 2.75  19 2.75  48 2.75  47 2.75  36 2.76  35 2.76

  32  0.875  0.625  0.403-  37 2.74  31 2.75  33 2.75  28 2.75  20 2.75  48 2.75  36 2.76  49 2.76

  33  0.875  0.875  0.403-  29 2.75  32 2.75  30 2.75  21 2.75  34 2.75  37 2.76  49 2.76  46 2.76

  34  0.999  0.999  0.468-  46 2.73  53 2.74  37 2.75  35 2.75  33 2.75  50 2.75  21 2.76  30 2.76
                            62 2.77  38 2.77  18 2.77  65 2.80
  35  0.000  0.249  0.468-  39 2.74  51 2.75  47 2.75  34 2.75  18 2.75  30 2.75  63 2.76  36 2.76
                            19 2.76  31 2.76  62 2.77  50 2.78
  36  0.999  0.500  0.468-  48 2.73  37 2.73  40 2.75  51 2.75  52 2.75  32 2.76  31 2.76  35 2.76
                            20 2.76  19 2.76  63 2.78  64 2.80
  37  0.998  0.749  0.468-  36 2.73  49 2.73  32 2.74  34 2.75  52 2.75  41 2.75  53 2.75  33 2.76
                            65 2.76  20 2.76  21 2.77  64 2.81
  38  0.251  0.001  0.468-  50 2.73  22 2.74  39 2.74  42 2.74  57 2.74  25 2.75  18 2.75  41 2.76
                            21 2.76  53 2.76  34 2.77  54 2.80
  39  0.250  0.251  0.468-  51 2.74  38 2.74  35 2.74  43 2.75  23 2.75  19 2.75  40 2.76  22 2.76
                            18 2.76  54 2.76  50 2.78  55 2.78
  40  0.250  0.502  0.468-  55 2.72  41 2.73  20 2.75  36 2.75  44 2.75  24 2.75  51 2.75  39 2.76
                            19 2.76  23 2.77  52 2.77  56 2.79
  41  0.249  0.750  0.468-  40 2.73  53 2.74  45 2.75  20 2.75  37 2.75  21 2.75  38 2.76  56 2.76
                            24 2.76  25 2.76  52 2.77  57 2.77
  42  0.501  0.002  0.468-  46 2.74  43 2.74  61 2.74  38 2.74  26 2.74  57 2.75  45 2.75  22 2.75
                            29 2.77  54 2.77  25 2.78  58 2.79
  43  0.500  0.252  0.468-  42 2.74  54 2.74  39 2.75  47 2.75  23 2.75  27 2.75  44 2.75  59 2.76
                            22 2.77  26 2.77  55 2.78  58 2.78
  44  0.500  0.503  0.468-  55 2.74  24 2.74  28 2.74  45 2.74  60 2.74  40 2.75  43 2.75  48 2.76
                            59 2.76  23 2.76  27 2.77  56 2.80
  45  0.499  0.752  0.468-  25 2.74  44 2.74  57 2.75  42 2.75  41 2.75  29 2.75  49 2.75  60 2.75
                            24 2.77  61 2.77  28 2.77  56 2.78
  46  0.750  1.000  0.468-  34 2.73  42 2.74  61 2.74  47 2.74  49 2.75  62 2.76  33 2.76  30 2.76
                            29 2.76  26 2.76  58 2.79  65 2.79
  47  0.750  0.250  0.468-  63 2.74  46 2.74  43 2.75  35 2.75  48 2.75  30 2.75  26 2.75  31 2.75
                            58 2.75  27 2.75  62 2.77  59 2.77
  48  0.751  0.500  0.468-  36 2.73  59 2.74  49 2.74  47 2.75  32 2.75  31 2.75  44 2.76  28 2.76
                            27 2.76  63 2.77  60 2.77  64 2.79
  49  0.750  0.750  0.468-  37 2.73  48 2.74  60 2.74  46 2.75  65 2.75  45 2.75  28 2.75  29 2.76
                            32 2.76  33 2.76  61 2.78  64 2.82
  50  0.127  0.120  0.533-  53 2.70  66 2.70  38 2.73  71 2.73  54 2.75  34 2.75  62 2.77  39 2.78
                            35 2.78  51 2.79  67 2.84  70 2.89
  51  0.125  0.374  0.533-  55 2.73  39 2.74  35 2.75  36 2.75  40 2.75  63 2.76  52 2.76  68 2.78
                            50 2.79  71 2.84  67 2.85  72 2.91
  52  0.123  0.625  0.534-  73 2.73  64 2.73  53 2.74  68 2.75  37 2.75  56 2.75  36 2.75  51 2.76
                            41 2.77  40 2.77  72 2.99  69 3.02
  53  0.125  0.875  0.533-  50 2.70  41 2.74  52 2.74  34 2.74  57 2.75  37 2.75  66 2.76  65 2.76
                            38 2.76  73 2.80  70 2.87  69 3.00
  54  0.377  0.130  0.534-  71 2.74  43 2.74  58 2.74  50 2.75  39 2.76  55 2.76  57 2.77  42 2.77
                            38 2.80  70 2.83  74 2.83  75 2.83
  55  0.374  0.381  0.533-  75 2.70  56 2.72  40 2.72  51 2.73  44 2.74  59 2.76  72 2.76  54 2.76
                            43 2.78  39 2.78  71 2.91  76 3.03
  56  0.373  0.629  0.535-  55 2.72  57 2.73  52 2.75  60 2.75  41 2.76  73 2.77  45 2.78  40 2.79
                            44 2.80  76 2.81  72 2.86  77 2.88
  57  0.375  0.878  0.533-  77 2.69  70 2.72  56 2.73  61 2.74  38 2.74  45 2.75  42 2.75  53 2.75
                            54 2.77  41 2.77  73 2.90  74 3.06
  58  0.627  0.129  0.535-  74 2.68  62 2.72  59 2.73  54 2.74  79 2.74  47 2.75  61 2.76  43 2.78
                            42 2.79  46 2.79  75 2.95  78 2.97
  59  0.625  0.378  0.533-  58 2.73  60 2.73  63 2.73  48 2.74  43 2.76  55 2.76  44 2.76  47 2.77
                            75 2.79  80 2.84  76 2.92  79 2.95
  60  0.624  0.627  0.533-  76 2.68  81 2.70  59 2.73  49 2.74  44 2.74  64 2.75  45 2.75  56 2.75
                            61 2.76  48 2.77  80 2.95  77 3.07
  61  0.625  0.878  0.534-  65 2.73  57 2.74  46 2.74  42 2.74  58 2.76  60 2.76  45 2.77  49 2.78
                            78 2.82  81 2.85  77 2.85  74 2.90
  62  0.874  0.125  0.534-  63 2.71  58 2.72  67 2.73  46 2.76  34 2.77  47 2.77  35 2.77  50 2.77
                            65 2.80  66 2.82  78 2.85  79 2.90
  63  0.874  0.372  0.534-  62 2.71  59 2.73  47 2.74  35 2.76  80 2.76  64 2.76  67 2.76  51 2.76
                            48 2.77  36 2.78  68 2.83  79 3.01
  64  0.874  0.623  0.536-  65 2.72  52 2.73  60 2.75  68 2.76  63 2.76  80 2.76  48 2.79  36 2.80
                            37 2.81  49 2.82  81 2.82  69 2.85
  65  0.873  0.870  0.535-  78 2.71  64 2.72  61 2.73  49 2.75  37 2.76  53 2.76  69 2.78  46 2.79
                            62 2.80  34 2.80  66 2.87  81 2.93
  66  0.010  0.003  0.600-   4 2.01  67 2.68  50 2.70  69 2.74  78 2.74  53 2.76  70 2.77  62 2.82
                            65 2.87
  67  0.994  0.246  0.600-   8 2.02  66 2.68  62 2.73  63 2.76  71 2.76  68 2.78  79 2.81  50 2.84
                            51 2.85
  68  0.004  0.500  0.600-   9 1.86  80 2.70  52 2.75  64 2.76  51 2.78  67 2.78  72 2.81  69 2.83
                            63 2.83
  69  0.985  0.756  0.607-   7 2.02   4 2.23  66 2.74  81 2.76  65 2.78  73 2.83  68 2.83  64 2.85
                            53 3.00  52 3.02
  70  0.262  0.993  0.602-   2 2.05  57 2.72  71 2.72  73 2.73  66 2.77  74 2.79  54 2.83  53 2.87
                            50 2.89  77 3.43
  71  0.246  0.240  0.600-   8 2.03  75 2.70  70 2.72  50 2.73  54 2.74  67 2.76  72 2.77  51 2.84
                            55 2.91
  72  0.260  0.492  0.604-   9 1.89   1 2.46  55 2.76  71 2.77  76 2.78  73 2.79  68 2.81  56 2.86
                            51 2.91  52 2.99
  73  0.241  0.745  0.601-   7 1.95  77 2.69  52 2.73  70 2.73  56 2.77  72 2.79  53 2.80  69 2.83
                            57 2.90
  74  0.514  0.023  0.604-   2 2.06   6 2.14  58 2.68  75 2.74  78 2.74  77 2.76  70 2.79  54 2.83
                            61 2.90  57 3.06  79 3.42
  75  0.490  0.271  0.601-   1 2.02  55 2.70  71 2.70  74 2.74  79 2.77  59 2.79  76 2.79  54 2.83
                            58 2.95
  76  0.512  0.524  0.603-   1 2.03   5 2.24  60 2.68  80 2.74  77 2.76  72 2.78  75 2.79  56 2.81
                            59 2.92  55 3.03  81 3.39
  77  0.484  0.774  0.604-   5 2.04   2 2.26  57 2.69  73 2.69  76 2.76  74 2.76  81 2.77  61 2.85
                            56 2.88  60 3.07  70 3.43
  78  0.761  0.986  0.603-   6 2.05   4 2.14  65 2.71  66 2.74  81 2.74  74 2.74  79 2.77  61 2.82
                            62 2.85  58 2.97
  79  0.739  0.238  0.606-   3 1.99   6 2.18  58 2.74  75 2.77  78 2.77  80 2.80  67 2.81  62 2.90
                            59 2.95  63 3.01  74 3.42
  80  0.759  0.492  0.602-   3 1.95  68 2.70  81 2.71  76 2.74  63 2.76  64 2.76  79 2.80  59 2.84
                            60 2.95
  81  0.734  0.738  0.603-   5 2.06  60 2.70  80 2.71  78 2.74  69 2.76  77 2.77  64 2.82  61 2.85
                            65 2.93  76 3.39
 
  LATTYP: Found a simple tetragonal cell.
 ALAT       =    10.9820000000
 C/A-ratio  =     2.7317428519
  
  Lattice vectors:
  
 A1 = (  10.9820000000,   0.0000000000,   0.0000000000)
 A2 = (   0.0000000000,  10.9820000000,   0.0000000000)
 A3 = (   0.0000000000,   0.0000000000,  30.0000000000)


Analysis of symmetry for initial positions (statically):
=====================================================================
 Subroutine PRICEL returns:
 Original cell was already a primitive cell.
 

 Routine SETGRP: Setting up the symmetry group for a 
 simple tetragonal supercell.


 Subroutine GETGRP returns: Found  1 space group operations
 (whereof  1 operations were pure point group operations)
 out of a pool of 16 trial point group operations.


The static configuration has the point symmetry C_1 .


Analysis of symmetry for dynamics (positions and initial velocities):
=====================================================================
 Subroutine PRICEL returns:
 Original cell was already a primitive cell.
 

 Routine SETGRP: Setting up the symmetry group for a 
 simple tetragonal supercell.


 Subroutine GETGRP returns: Found  1 space group operations
 (whereof  1 operations were pure point group operations)
 out of a pool of 16 trial point group operations.


The dynamic configuration has the point symmetry C_1 .


Analysis of constrained symmetry for selective dynamics:
=====================================================================
 Subroutine PRICEL returns:
 Original cell was already a primitive cell.
 

 Routine SETGRP: Setting up the symmetry group for a 
 simple tetragonal supercell.


 Subroutine GETGRP returns: Found  1 space group operations
 (whereof  1 operations were pure point group operations)
 out of a pool of 16 trial point group operations.


The constrained configuration has the point symmetry C_1 .


Analysis of structural, dynamic, and magnetic symmetry:
=====================================================================
 Subroutine PRICEL returns:
 Original cell was already a primitive cell.
 

 Routine SETGRP: Setting up the symmetry group for a 
 simple tetragonal supercell.


 Subroutine GETGRP returns: Found  1 space group operations
 (whereof  1 operations were pure point group operations)
 out of a pool of 16 trial point group operations.


The magnetic configuration has the point symmetry C_1 .


 Subroutine INISYM returns: Found  1 space group operations
 (whereof  1 operations are pure point group operations),
 and found     1 'primitive' translations

 
 
 KPOINTS: K-Point Grid                            

Automatic generation of k-mesh.
Space group operators:
 irot       det(A)        alpha          n_x          n_y          n_z        tau_x        tau_y        tau_z
    1     1.000000     0.000001     1.000000     0.000000     0.000000     0.000000     0.000000     0.000000
 
 Subroutine IBZKPT returns following result:
 ===========================================
 
 Found      8 irreducible k-points:
 
 Following reciprocal coordinates:
            Coordinates               Weight
  0.125000  0.125000  0.000000      2.000000
  0.375000  0.125000  0.000000      2.000000
 -0.375000  0.125000  0.000000      2.000000
 -0.125000  0.125000  0.000000      2.000000
  0.125000  0.375000  0.000000      2.000000
  0.375000  0.375000  0.000000      2.000000
 -0.375000  0.375000  0.000000      2.000000
 -0.125000  0.375000  0.000000      2.000000
 
 Following cartesian coordinates:
            Coordinates               Weight
  0.011382  0.011382  0.000000      2.000000
  0.034147  0.011382  0.000000      2.000000
 -0.034147  0.011382  0.000000      2.000000
 -0.011382  0.011382  0.000000      2.000000
  0.011382  0.034147  0.000000      2.000000
  0.034147  0.034147  0.000000      2.000000
 -0.034147  0.034147  0.000000      2.000000
 -0.011382  0.034147  0.000000      2.000000
 


--------------------------------------------------------------------------------------------------------




 Dimension of arrays:
   k-points           NKPTS =      8   k-points in BZ     NKDIM =      8   number of bands    NBANDS=    480
   number of dos      NEDOS =   1200   number of ions     NIONS =     81
   non local maximal  LDIM  =      6   non local SUM 2l+1 LMDIM =     18
   total plane-waves  NPLWV = ******
   max r-space proj   IRMAX =   5807   max aug-charges    IRDMAX=  13820
   dimension x,y,z NGX =    72 NGY =   72 NGZ =  196
   dimension x,y,z NGXF=   144 NGYF=  144 NGZF=  392
   support grid    NGXF=   144 NGYF=  144 NGZF=  392
   ions per type =               9   8  64
   NGX,Y,Z   is equivalent  to a cutoff of  10.90, 10.90, 10.86 a.u.
   NGXF,Y,Z  is equivalent  to a cutoff of  21.80, 21.80, 21.72 a.u.

 SYSTEM =  Pd_111_surface                          
 POSCAR =  N O Pd                                  

 Startparameter for this run:
   NWRITE =      2    write-flag & timer
   PREC   = accura    normal or accurate (medium, high low for compatibility)
   ISTART =      0    job   : 0-new  1-cont  2-samecut
   ICHARG =      2    charge: 1-file 2-atom 10-const
   ISPIN  =      2    spin polarized calculation?
   LNONCOLLINEAR =      F non collinear calculations
   LSORBIT =      F    spin-orbit coupling
   INIWAV =      1    electr: 0-lowe 1-rand  2-diag
   LASPH  =      F    aspherical Exc in radial PAW
   METAGGA=      F    non-selfconsistent MetaGGA calc.

 Electronic Relaxation 1
   ENCUT  =  400.0 eV  29.40 Ry    5.42 a.u.  17.91 17.91 48.92*2*pi/ulx,y,z
   ENINI  =  400.0     initial cutoff
   ENAUG  =  627.1 eV  augmentation charge cutoff
   NELM   =    100;   NELMIN=  2; NELMDL= -5     # of ELM steps 
   EDIFF  = 0.1E-04   stopping-criterion for ELM
   LREAL  =      T    real-space projection
   NLSPLINE    = F    spline interpolate recip. space projectors
   LCOMPAT=      F    compatible to vasp.4.4
   GGA_COMPAT  = T    GGA compatible to vasp.4.4-vasp.4.6
   LMAXPAW     = -100 max onsite density
   LMAXMIX     =    2 max onsite mixed and CHGCAR
   VOSKOWN=      0    Vosko Wilk Nusair interpolation
   ROPT   =   -0.00025  -0.00025  -0.00025
 Ionic relaxation
   EDIFFG = -.5E-01   stopping-criterion for IOM
   NSW    =    300    number of steps for IOM
   NBLOCK =      1;   KBLOCK =    300    inner block; outer block 
   IBRION =      1    ionic relax: 0-MD 1-quasi-New 2-CG
   NFREE  =      0    steps in history (QN), initial steepest desc. (CG)
   ISIF   =      2    stress and relaxation
   IWAVPR =     11    prediction:  0-non 1-charg 2-wave 3-comb
   ISYM   =      2    0-nonsym 1-usesym 2-fastsym
   LCORR  =      T    Harris-Foulkes like correction to forces

   POTIM  = 0.4000    time-step for ionic-motion
   TEIN   =    0.0    initial temperature
   TEBEG  =    0.0;   TEEND  =   0.0 temperature during run
   SMASS  =  -3.00    Nose mass-parameter (am)
   estimated Nose-frequenzy (Omega)   =  0.10E-29 period in steps =****** mass=  -0.276E-26a.u.
   SCALEE = 1.0000    scale energy and forces
   NPACO  =    256;   APACO  = 16.0  distance and # of slots for P.C.
   PSTRESS=    0.0 pullay stress

  Mass of Ions in am
   POMASS =  14.00 16.00106.42
  Ionic Valenz
   ZVAL   =   5.00  6.00 10.00
  Atomic Wigner-Seitz radii
   RWIGS  =  -1.00 -1.00 -1.00
  virtual crystal weights 
   VCA    =   1.00  1.00  1.00
   NELECT =     733.0000    total number of electrons
   NUPDOWN=      -1.0000    fix difference up-down

 DOS related values:
   EMIN   =  10.00;   EMAX   =-10.00  energy-range for DOS
   EFERMI =   0.00
   ISMEAR =     1;   SIGMA  =   0.20  broadening in eV -4-tet -1-fermi 0-gaus

 Electronic relaxation 2 (details)
   IALGO  =     68    algorithm
   LDIAG  =      T    sub-space diagonalisation (order eigenvalues)
   LSUBROT=      F    optimize rotation matrix (better conditioning)
   TURBO    =      0    0=normal 1=particle mesh
   IRESTART =      0    0=no restart 2=restart with 2 vectors
   NREBOOT  =      0    no. of reboots
   NMIN     =      0    reboot dimension
   EREF     =   0.00    reference energy to select bands
   IMIX   =      4    mixing-type and parameters
     AMIX     =   0.40;   BMIX     =  1.00
     AMIX_MAG =   1.60;   BMIX_MAG =  1.00
     AMIN     =   0.10
     WC   =   100.;   INIMIX=   1;  MIXPRE=   1;  MAXMIX= -45

 Intra band minimization:
   WEIMIN = 0.0010     energy-eigenvalue tresh-hold
   EBREAK =  0.52E-08  absolut break condition
   DEPER  =   0.30     relativ break condition  

   TIME   =   0.40     timestep for ELM

  volume/ion in A,a.u.               =      44.67       301.44
  Fermi-wavevector in a.u.,A,eV,Ry     =   0.961497  1.816967 12.578276  0.924477
  Thomas-Fermi vector in A             =   2.090874
 
 Write flags
   LWAVE        =      F    write WAVECAR
   LDOWNSAMPLE  =      F    k-point downsampling of WAVECAR
   LCHARG       =      F    write CHGCAR
   LVTOT        =      F    write LOCPOT, total local potential
   LVHAR        =      F    write LOCPOT, Hartree potential only
   LELF         =      F    write electronic localiz. function (ELF)
   LORBIT       =     11    0 simple, 1 ext, 2 COOP (PROOUT), +10 PAW based schemes


 Dipole corrections
   LMONO  =      F    monopole corrections only (constant potential shift)
   LDIPOL =      T    correct potential (dipole corrections)
   IDIPOL =      3    1-x, 2-y, 3-z, 4-all directions 
   EPSILON=  1.0000000 bulk dielectric constant

 Exchange correlation treatment:
   GGA     =    --    GGA type
   LEXCH   =     8    internal setting for exchange type
   VOSKOWN=      0    Vosko Wilk Nusair interpolation
   LHFCALC =     F    Hartree Fock is set to
   LHFONE  =     F    Hartree Fock one center treatment
   AEXX    =    0.0000 exact exchange contribution

 Linear response parameters
   LEPSILON=     F    determine dielectric tensor
   LRPA    =     F    only Hartree local field effects (RPA)
   LNABLA  =     F    use nabla operator in PAW spheres
   LVEL    =     F    velocity operator in full k-point grid
   LINTERFAST=   F  fast interpolation
   KINTER  =     0    interpolate to denser k-point grid
   CSHIFT  =0.1000    complex shift for real part using Kramers Kronig
   OMEGAMAX=  -1.0    maximum frequency
   DEG_THRESHOLD= 0.2000000E-02 threshold for treating states as degnerate
   RTIME   =   -0.100 relaxation time in fs
  (WPLASMAI=    0.000 imaginary part of plasma frequency in eV, 0.658/RTIME)
   DFIELD  = 0.0000000 0.0000000 0.0000000 field for delta impulse in time
 
 Orbital magnetization related:
   ORBITALMAG=     F  switch on orbital magnetization
   LCHIMAG   =     F  perturbation theory with respect to B field
   DQ        =  0.001000  dq finite difference perturbation B field
   LLRAUG    =     F  two centre corrections for induced B field



--------------------------------------------------------------------------------------------------------


 quasi-Newton-method for relaxation of ions
   using selective dynamics as specified on POSCAR
 charge density and potential will be updated during run
 spin polarized calculation
 RMM-DIIS sequential band-by-band and
  variant of blocked Davidson during initial phase
 perform sub-space diagonalisation
    before iterative eigenvector-optimisation
 modified Broyden-mixing scheme, WC =      100.0
 initial mixing is a Kerker type mixing with AMIX =  0.4000 and BMIX =      1.0000
 Hartree-type preconditioning will be used
 using additional bands          113
 real space projection scheme for non local part
 use partial core corrections
 calculate Harris-corrections to forces 
   (improved forces if not selfconsistent)
 use gradient corrections 
 use of overlap-Matrix (Vanderbilt PP)
 Methfessel and Paxton  Order N= 1 SIGMA  =   0.20


--------------------------------------------------------------------------------------------------------


  energy-cutoff  :      400.00
  volume of cell :     3618.13
      direct lattice vectors                 reciprocal lattice vectors
    10.982000000  0.000000000  0.000000000     0.091058095  0.000000000  0.000000000
     0.000000000 10.982000000  0.000000000     0.000000000  0.091058095  0.000000000
     0.000000000  0.000000000 30.000000000     0.000000000  0.000000000  0.033333333

  length of vectors
    10.982000000 10.982000000 30.000000000     0.091058095  0.091058095  0.033333333


 
 k-points in units of 2pi/SCALE and weight: K-Point Grid                            
   0.01138226  0.01138226  0.00000000       0.125
   0.03414679  0.01138226  0.00000000       0.125
  -0.03414679  0.01138226  0.00000000       0.125
  -0.01138226  0.01138226  0.00000000       0.125
   0.01138226  0.03414679  0.00000000       0.125
   0.03414679  0.03414679  0.00000000       0.125
  -0.03414679  0.03414679  0.00000000       0.125
  -0.01138226  0.03414679  0.00000000       0.125
 
 k-points in reciprocal lattice and weights: K-Point Grid                            
   0.12500000  0.12500000  0.00000000       0.125
   0.37500000  0.12500000  0.00000000       0.125
  -0.37500000  0.12500000  0.00000000       0.125
  -0.12500000  0.12500000  0.00000000       0.125
   0.12500000  0.37500000  0.00000000       0.125
   0.37500000  0.37500000  0.00000000       0.125
  -0.37500000  0.37500000  0.00000000       0.125
  -0.12500000  0.37500000  0.00000000       0.125
 
 position of ions in fractional coordinates (direct lattice) 
   0.43326448  0.40083447  0.64458626
   0.39516748  0.92536086  0.64275942
   0.75603538  0.37205272  0.65003212
   0.90397353  0.91333128  0.64330143
   0.59749810  0.67287901  0.64321946
   0.65793868  0.09132726  0.64483465
   0.12484138  0.73982547  0.64977773
   0.12006929  0.27655962  0.64805947
   0.12457146  0.46317250  0.64166712
   0.44252077  0.39435164  0.68450166
   0.38738984  0.92598310  0.68291367
   0.73523134  0.38207458  0.68886161
   0.91086113  0.92514628  0.68325785
   0.60268242  0.67605661  0.68346785
   0.65783629  0.08674431  0.68503073
   0.13642776  0.76877825  0.68779223
   0.11869690  0.23774098  0.68543583
   0.12499955  0.12499955  0.40293227
   0.12499955  0.37499864  0.40293227
   0.12499955  0.62499774  0.40293227
   0.12499955  0.87499683  0.40293227
   0.37499864  0.12499955  0.40293227
   0.37499864  0.37499864  0.40293227
   0.37499864  0.62499774  0.40293227
   0.37499864  0.87499683  0.40293227
   0.62499774  0.12499955  0.40293227
   0.62499774  0.37499864  0.40293227
   0.62499774  0.62499774  0.40293227
   0.62499774  0.87499683  0.40293227
   0.87499683  0.12499955  0.40293227
   0.87499683  0.37499864  0.40293227
   0.87499683  0.62499774  0.40293227
   0.87499683  0.87499683  0.40293227
   0.99907997  0.99872605  0.46834107
   0.00032825  0.24891836  0.46816533
   0.99942547  0.50014135  0.46833505
   0.99848046  0.74873076  0.46824517
   0.25125393  0.00085770  0.46783244
   0.25000358  0.25051911  0.46803899
   0.24953273  0.50152735  0.46813635
   0.24892021  0.74996025  0.46815653
   0.50098714  0.00246242  0.46839771
   0.49998238  0.25186029  0.46823678
   0.49981048  0.50251153  0.46794361
   0.49924073  0.75222766  0.46819967
   0.75017143  0.99985711  0.46844032
   0.75014343  0.24971076  0.46796302
   0.75087776  0.50002601  0.46816733
   0.74974205  0.74984050  0.46818989
   0.12687300  0.12046905  0.53334560
   0.12532850  0.37416954  0.53279963
   0.12274713  0.62546884  0.53381047
   0.12487078  0.87471610  0.53278533
   0.37685645  0.12992573  0.53404312
   0.37418035  0.38135800  0.53300203
   0.37328884  0.62892665  0.53452645
   0.37537325  0.87766235  0.53312142
   0.62668526  0.12916306  0.53455838
   0.62519272  0.37767048  0.53317158
   0.62395631  0.62654970  0.53309859
   0.62456194  0.87823220  0.53352786
   0.87437206  0.12468318  0.53385168
   0.87402546  0.37176558  0.53353629
   0.87392061  0.62260758  0.53592126
   0.87333680  0.86989253  0.53454988
   0.00997686  0.00313047  0.59989068
   0.99411133  0.24643070  0.60006912
   0.00445488  0.49964007  0.60016539
   0.98458796  0.75606491  0.60669445
   0.26174713  0.99252895  0.60172229
   0.24570240  0.23987103  0.60041965
   0.26018326  0.49174976  0.60433206
   0.24146129  0.74479696  0.60075124
   0.51414373  0.02319413  0.60369039
   0.48951619  0.27107513  0.60141337
   0.51160509  0.52409542  0.60316655
   0.48439116  0.77372379  0.60367433
   0.76116027  0.98623033  0.60282668
   0.73933418  0.23773601  0.60590820
   0.75921084  0.49216358  0.60227464
   0.73393116  0.73804230  0.60254665
 
 position of ions in cartesian coordinates  (Angst):
   4.75811054  4.40196413 19.33758789
   4.33972929 10.16231293 19.28278268
   8.30278052  4.08588299 19.50096364
   9.92743736 10.03020409 19.29904304
   6.56172413  7.38955733 19.29658387
   7.22548262  1.00295600 19.34503954
   1.37100805  8.12476332 19.49333197
   1.31860093  3.03717770 19.44178397
   1.36804377  5.08656039 19.25001366
   4.85976309  4.33076967 20.53504983
   4.25431527 10.16914636 20.48741017
   8.07431053  4.19594304 20.66584833
  10.00307694 10.15995650 20.49773536
   6.61865837  7.42445372 20.50403563
   7.22435816  0.95262600 20.55092180
   1.49824969  8.44272275 20.63376698
   1.30352934  2.61087146 20.56307494
   1.37274503  1.37274503 12.08796804
   1.37274503  4.11823509 12.08796804
   1.37274503  6.86372514 12.08796804
   1.37274503  9.60921520 12.08796804
   4.11823509  1.37274503 12.08796804
   4.11823509  4.11823509 12.08796804
   4.11823509  6.86372514 12.08796804
   4.11823509  9.60921520 12.08796804
   6.86372514  1.37274503 12.08796804
   6.86372514  4.11823509 12.08796804
   6.86372514  6.86372514 12.08796804
   6.86372514  9.60921520 12.08796804
   9.60921520  1.37274503 12.08796804
   9.60921520  4.11823509 12.08796804
   9.60921520  6.86372514 12.08796804
   9.60921520  9.60921520 12.08796804
  10.97189619 10.96800946 14.05023224
   0.00360489  2.73362146 14.04496005
  10.97569054  5.49255232 14.05005155
  10.96531246  8.22256116 14.04735496
   2.75927068  0.00941921 14.03497313
   2.74553931  2.75120090 14.04116959
   2.74036841  5.50777337 14.04409042
   2.73364172  8.23606343 14.04469600
   5.50184081  0.02704233 14.05193129
   5.49080655  2.76592974 14.04710330
   5.48891868  5.51858167 14.03830841
   5.48266174  8.26096412 14.04599012
   8.23838268 10.98043074 14.05320966
   8.23807511  2.74232359 14.03889066
   8.24613958  5.49128565 14.04502003
   8.23366724  8.23474837 14.04569682
   1.39331929  1.32299114 16.00036785
   1.37635756  4.10912992 15.98398888
   1.34800894  6.86889880 16.01431424
   1.37133092  9.60613221 15.98355987
   4.13863754  1.42684433 16.02129374
   4.10924861  4.18807354 15.99006082
   4.09945809  6.90687244 16.03579341
   4.12234905  9.63848796 15.99364245
   6.88225751  1.41846875 16.03675136
   6.86586645  4.14757719 15.99514735
   6.85228822  6.88076879 15.99295784
   6.85893922  9.64474606 16.00583571
   9.60235395  1.36927071 16.01555048
   9.59854764  4.08272963 16.00608858
   9.59739617  6.83747648 16.07763776
   9.59098476  9.55315976 16.03649645
   0.10956587  0.03437886 17.99672035
  10.91733062  2.70630195 18.00207348
   0.04892346  5.48704728 18.00496164
  10.81274496  8.30310479 18.20083349
   2.87450696 10.89995295 18.05166867
   2.69830372  2.63426361 18.01258962
   2.85733260  5.40039582 18.12996191
   2.65172792  8.17936026 18.02253724
   5.64632643  0.25471796 18.11071169
   5.37586684  2.97694706 18.04240105
   5.61844714  5.75561585 18.09499657
   5.31958372  8.49703468 18.11022988
   8.35906211 10.83078149 18.08480045
   8.11936802  2.61081691 18.17724587
   8.33765344  5.40494038 18.06823931
   8.06003200  8.10518053 18.07639963
 


--------------------------------------------------------------------------------------------------------


 k-point  1 :   0.1250 0.1250 0.0000  plane waves:   65671
 k-point  2 :   0.3750 0.1250 0.0000  plane waves:   65719
 k-point  3 :  -0.3750 0.1250 0.0000  plane waves:   65719
 k-point  4 :  -0.1250 0.1250 0.0000  plane waves:   65671
 k-point  5 :   0.1250 0.3750 0.0000  plane waves:   65719
 k-point  6 :   0.3750 0.3750 0.0000  plane waves:   65776
 k-point  7 :  -0.3750 0.3750 0.0000  plane waves:   65776
 k-point  8 :  -0.1250 0.3750 0.0000  plane waves:   65719

 maximum and minimum number of plane-waves per node :      6612     6539

 maximum number of plane-waves:     65776
 maximum index in each direction: 
   IXMAX=   18   IYMAX=   17   IZMAX=   48
   IXMIN=  -18   IYMIN=  -18   IZMIN=  -48


 real space projection operators:
  total allocation   :      43681.64 KBytes
  max/ min on nodes  :       4849.58       4190.16


 parallel 3D FFT for wavefunctions:
    minimum data exchange during FFTs selected (reduces bandwidth)
 parallel 3D FFT for charge:
    minimum data exchange during FFTs selected (reduces bandwidth)


 total amount of memory used by VASP MPI-rank0   524481. kBytes
=======================================================================

   base      :      30000. kBytes
   nonlr-proj:      13973. kBytes
   fftplans  :      18152. kBytes
   grid      :      48955. kBytes
   one-center:        279. kBytes
   wavefun   :     413122. kBytes
 
     INWAV:  cpu time    0.0000: real time    0.0000
 Broyden mixing: mesh for mixing (old mesh)
   NGX = 35   NGY = 35   NGZ = 97
  (NGX  =144   NGY  =144   NGZ  =392)
  gives a total of 118825 points

 initial charge density was supplied:
 charge density of overlapping atoms calculated
 number of electron     733.0000000 magnetization      81.0000000
 keeping initial charge density in first step


--------------------------------------------------------------------------------------------------------


 Maximum index for non-local projection operator          835
 Maximum index for augmentation-charges         1330 (set IRDMAX)


--------------------------------------------------------------------------------------------------------


 First call to EWALD:  gamma=   0.115
 Maximum number of real-space cells 4x 4x 2
 Maximum number of reciprocal cells 2x 2x 5

    FEWALD:  cpu time    0.0108: real time    0.0054


--------------------------------------- Iteration      1(   1)  ---------------------------------------


    POTLOK:  cpu time    0.8721: real time    0.7361
    SETDIJ:  cpu time    0.1035: real time    0.0627
     EDDAV:  cpu time  301.6558: real time  151.5564
       DOS:  cpu time    0.1324: real time    0.0876
    --------------------------------------------
      LOOP:  cpu time  302.7639: real time  152.4429

 eigenvalue-minimisations  : 15776
 total energy-change (2. order) : 0.4638504E+04  (-0.2821657E+05)
 number of electron     733.0000000 magnetization      81.0000000
 augmentation part      733.0000000 magnetization      81.0000000

 DIPCOR: dipole corrections for dipol
 direction  3 min pos     1,
 dipolmoment           0.000000      0.000000     -0.000446 electrons x Angstroem
 Tr[quadrupol]    -14899.901195

 energy correction for charged system         0.000000 eV
 dipol+quadrupol energy correction           -0.000000 eV
 added-field ion interaction          0.011096 eV  (added to PSCEN)


 Free energy of the ion-electron system (eV)
  ---------------------------------------------------
  alpha Z        PSCENC =       921.88656205
  Ewald energy   TEWEN  =    428624.65693863
  -Hartree energ DENC   =   -486462.56129149
  -exchange      EXHF   =         0.00000000
  -V(xc)+E(xc)   XCENC  =     -1475.63870410
  PAW double counting   =     56239.88197334   -52283.09525828
  entropy T*S    EENTRO =        -0.00975756
  eigenvalues    EBANDS =      1411.39343934
  atomic energy  EATOM  =     57661.98971508
  Solvation  Ediel_sol  =         0.00000000
  ---------------------------------------------------
  free energy    TOTEN  =      4638.50361700 eV

  energy without entropy =     4638.51337456  energy(sigma->0) =     4638.50686952


--------------------------------------------------------------------------------------------------------




--------------------------------------- Iteration      1(   2)  ---------------------------------------


     EDDAV:  cpu time  335.4047: real time  168.3760
       DOS:  cpu time    0.1126: real time    0.0695
    --------------------------------------------
      LOOP:  cpu time  335.5173: real time  168.4456

 eigenvalue-minimisations  : 18184
 total energy-change (2. order) :-0.4711574E+04  (-0.4403188E+04)
 number of electron     733.0000000 magnetization      81.0000000
 augmentation part      733.0000000 magnetization      81.0000000

 DIPCOR: dipole corrections for dipol
 direction  3 min pos     1,
 dipolmoment           0.000000      0.000000     -0.000446 electrons x Angstroem
 Tr[quadrupol]    -14899.901195

 energy correction for charged system         0.000000 eV
 dipol+quadrupol energy correction           -0.000000 eV
 added-field ion interaction          0.011096 eV  (added to PSCEN)


 Free energy of the ion-electron system (eV)
  ---------------------------------------------------
  alpha Z        PSCENC =       921.88656205
  Ewald energy   TEWEN  =    428624.65693863
  -Hartree energ DENC   =   -486462.56129149
  -exchange      EXHF   =         0.00000000
  -V(xc)+E(xc)   XCENC  =     -1475.63870410
  PAW double counting   =     56239.88197334   -52283.09525828
  entropy T*S    EENTRO =         0.00205107
  eigenvalues    EBANDS =     -3300.19221255
  atomic energy  EATOM  =     57661.98971508
  Solvation  Ediel_sol  =         0.00000000
  ---------------------------------------------------
  free energy    TOTEN  =       -73.07022625 eV

  energy without entropy =      -73.07227732  energy(sigma->0) =      -73.07090994


--------------------------------------------------------------------------------------------------------




--------------------------------------- Iteration      1(   3)  ---------------------------------------


     EDDAV:  cpu time  334.4721: real time  168.0314
       DOS:  cpu time    0.2664: real time    0.2220
    --------------------------------------------
      LOOP:  cpu time  334.7385: real time  168.2534

 eigenvalue-minimisations  : 17776
 total energy-change (2. order) :-0.3599172E+03  (-0.3318959E+03)
 number of electron     733.0000000 magnetization      81.0000000
 augmentation part      733.0000000 magnetization      81.0000000

 DIPCOR: dipole corrections for dipol
 direction  3 min pos     1,
 dipolmoment           0.000000      0.000000     -0.000446 electrons x Angstroem
 Tr[quadrupol]    -14899.901195

 energy correction for charged system         0.000000 eV
 dipol+quadrupol energy correction           -0.000000 eV
 added-field ion interaction          0.011096 eV  (added to PSCEN)


 Free energy of the ion-electron system (eV)
  ---------------------------------------------------
  alpha Z        PSCENC =       921.88656205
  Ewald energy   TEWEN  =    428624.65693863
  -Hartree energ DENC   =   -486462.56129149
  -exchange      EXHF   =         0.00000000
  -V(xc)+E(xc)   XCENC  =     -1475.63870410
  PAW double counting   =     56239.88197334   -52283.09525828
  entropy T*S    EENTRO =        -0.07313225
  eigenvalues    EBANDS =     -3660.03423883
  atomic energy  EATOM  =     57661.98971508
  Solvation  Ediel_sol  =         0.00000000
  ---------------------------------------------------
  free energy    TOTEN  =      -432.98743584 eV

  energy without entropy =     -432.91430360  energy(sigma->0) =     -432.96305843


--------------------------------------------------------------------------------------------------------




--------------------------------------- Iteration      1(   4)  ---------------------------------------


     EDDAV:  cpu time  323.8418: real time  162.8660
       DOS:  cpu time    0.1693: real time    0.1250
    --------------------------------------------
      LOOP:  cpu time  324.0111: real time  162.9910

 eigenvalue-minimisations  : 17120
 total energy-change (2. order) :-0.1173500E+02  (-0.1135086E+02)
 number of electron     733.0000000 magnetization      81.0000000
 augmentation part      733.0000000 magnetization      81.0000000

 DIPCOR: dipole corrections for dipol
 direction  3 min pos     1,
 dipolmoment           0.000000      0.000000     -0.000446 electrons x Angstroem
 Tr[quadrupol]    -14899.901195

 energy correction for charged system         0.000000 eV
 dipol+quadrupol energy correction           -0.000000 eV
 added-field ion interaction          0.011096 eV  (added to PSCEN)


 Free energy of the ion-electron system (eV)
  ---------------------------------------------------
  alpha Z        PSCENC =       921.88656205
  Ewald energy   TEWEN  =    428624.65693863
  -Hartree energ DENC   =   -486462.56129149
  -exchange      EXHF   =         0.00000000
  -V(xc)+E(xc)   XCENC  =     -1475.63870410
  PAW double counting   =     56239.88197334   -52283.09525828
  entropy T*S    EENTRO =        -0.06545626
  eigenvalues    EBANDS =     -3671.77691679
  atomic energy  EATOM  =     57661.98971508
  Solvation  Ediel_sol  =         0.00000000
  ---------------------------------------------------
  free energy    TOTEN  =      -444.72243782 eV

  energy without entropy =     -444.65698157  energy(sigma->0) =     -444.70061907


--------------------------------------------------------------------------------------------------------




--------------------------------------- Iteration      1(   5)  ---------------------------------------


     EDDAV:  cpu time  340.1450: real time  170.7072
       DOS:  cpu time    0.2611: real time    0.2142
    CHARGE:  cpu time    7.6707: real time    7.3834
    MIXING:  cpu time    0.0803: real time    0.1133
    --------------------------------------------
      LOOP:  cpu time  348.1571: real time  178.4181

 eigenvalue-minimisations  : 18472
 total energy-change (2. order) :-0.3872531E+00  (-0.3864454E+00)
 number of electron     732.9999726 magnetization      77.5433776
 augmentation part      263.8337785 magnetization      63.3290199

 DIPCOR: dipole corrections for dipol
 direction  3 min pos     1,
 dipolmoment           0.000000      0.000000     -0.000446 electrons x Angstroem
 Tr[quadrupol]    -14899.901195

 energy correction for charged system         0.000000 eV
 dipol+quadrupol energy correction           -0.000000 eV
 added-field ion interaction          0.011096 eV  (added to PSCEN)


 Broyden mixing:
  rms(total) = 0.70217E+01    rms(broyden)= 0.70195E+01
  rms(prec ) = 0.71138E+01
  weight for this iteration     100.00

 Free energy of the ion-electron system (eV)
  ---------------------------------------------------
  alpha Z        PSCENC =       921.88656205
  Ewald energy   TEWEN  =    428624.65693863
  -Hartree energ DENC   =   -486462.56129149
  -exchange      EXHF   =         0.00000000
  -V(xc)+E(xc)   XCENC  =     -1475.63870410
  PAW double counting   =     56239.88197334   -52283.09525828
  entropy T*S    EENTRO =        -0.06537012
  eigenvalues    EBANDS =     -3672.16425608
  atomic energy  EATOM  =     57661.98971508
  Solvation  Ediel_sol  =         0.00000000
  ---------------------------------------------------
  free energy    TOTEN  =      -445.10969097 eV

  energy without entropy =     -445.04432085  energy(sigma->0) =     -445.08790093


--------------------------------------------------------------------------------------------------------




--------------------------------------- Iteration      1(   6)  ---------------------------------------


    POTLOK:  cpu time    0.8050: real time    1.0030
    SETDIJ:  cpu time    0.1794: real time    0.1509
    EDDIAG:  cpu time   51.4477: real time   25.8454
  RMM-DIIS:  cpu time  207.1053: real time  103.9307
    ORTHCH:  cpu time    8.3526: real time    4.2116
       DOS:  cpu time    0.1716: real time    0.0923
    CHARGE:  cpu time    8.3827: real time    8.1540
    MIXING:  cpu time    0.1130: real time    0.1021
    --------------------------------------------
      LOOP:  cpu time  276.5574: real time  143.4900

 eigenvalue-minimisations  : 15360
 total energy-change (2. order) : 0.4020506E+02  (-0.1614683E+02)
 number of electron     732.9999735 magnetization      75.2052281
 augmentation part      280.2884594 magnetization      61.3067109

 DIPCOR: dipole corrections for dipol
 direction  3 min pos     1,
 dipolmoment           0.000000      0.000000      0.583959 electrons x Angstroem
 Tr[quadrupol]    -14896.482571

 energy correction for charged system         0.000000 eV
 dipol+quadrupol energy correction           -0.008527 eV
 added-field ion interaction        -14.542369 eV  (added to PSCEN)


 Broyden mixing:
  rms(total) = 0.58661E+01    rms(broyden)= 0.58617E+01
  rms(prec ) = 0.61350E+01
  weight for this iteration     100.00

 eigenvalues of (default mixing * dielectric matrix)
  average eigenvalue GAMMA=   0.7020
  0.7020

 Free energy of the ion-electron system (eV)
  ---------------------------------------------------
  alpha Z        PSCENC =       907.32457000
  Ewald energy   TEWEN  =    428624.65693863
  -Hartree energ DENC   =   -486007.76574148
  -exchange      EXHF   =         0.00000000
  -V(xc)+E(xc)   XCENC  =     -1451.25815089
  PAW double counting   =     61167.59182123   -57296.06227228
  entropy T*S    EENTRO =         0.02577873
  eigenvalues    EBANDS =     -4011.40728957
  atomic energy  EATOM  =     57661.98971508
  Solvation  Ediel_sol  =         0.00000000
  ---------------------------------------------------
  free energy    TOTEN  =      -404.90463056 eV

  energy without entropy =     -404.93040929  energy(sigma->0) =     -404.91322347


--------------------------------------------------------------------------------------------------------




--------------------------------------- Iteration      1(   7)  ---------------------------------------


    POTLOK:  cpu time    0.8104: real time    0.8185
    SETDIJ:  cpu time    0.1047: real time    0.0695
    EDDIAG:  cpu time   59.5215: real time   29.8754
  RMM-DIIS:  cpu time  213.0930: real time  107.1077
    ORTHCH:  cpu time    8.1168: real time    4.1661
       DOS:  cpu time    0.1022: real time    0.0512
    CHARGE:  cpu time    8.3532: real time    8.0458
    MIXING:  cpu time    0.0650: real time    0.0326
    --------------------------------------------
      LOOP:  cpu time  290.1668: real time  150.1667

 eigenvalue-minimisations  : 15384
 total energy-change (2. order) : 0.1259512E+02  (-0.5912799E+01)
 number of electron     732.9999696 magnetization      71.4980610
 augmentation part      272.2801861 magnetization      55.5465302

 DIPCOR: dipole corrections for dipol
 direction  3 min pos     1,
 dipolmoment           0.000000      0.000000     -0.192679 electrons x Angstroem
 Tr[quadrupol]    -14915.189351

 energy correction for charged system         0.000000 eV
 dipol+quadrupol energy correction           -0.000928 eV
 added-field ion interaction          4.798305 eV  (added to PSCEN)


 Broyden mixing:
  rms(total) = 0.45025E+01    rms(broyden)= 0.44968E+01
  rms(prec ) = 0.49493E+01
  weight for this iteration     100.00

 eigenvalues of (default mixing * dielectric matrix)
  average eigenvalue GAMMA=   0.7896
  1.2195  0.3596

 Free energy of the ion-electron system (eV)
  ---------------------------------------------------
  alpha Z        PSCENC =       926.67284283
  Ewald energy   TEWEN  =    428624.65693863
  -Hartree energ DENC   =   -486649.10479066
  -exchange      EXHF   =         0.00000000
  -V(xc)+E(xc)   XCENC  =     -1454.61783655
  PAW double counting   =     63490.99718824   -59632.26943989
  entropy T*S    EENTRO =        -0.03271088
  eigenvalues    EBANDS =     -3360.60141265
  atomic energy  EATOM  =     57661.98971508
  Solvation  Ediel_sol  =         0.00000000
  ---------------------------------------------------
  free energy    TOTEN  =      -392.30950585 eV

  energy without entropy =     -392.27679497  energy(sigma->0) =     -392.29860222


--------------------------------------------------------------------------------------------------------




--------------------------------------- Iteration      1(   8)  ---------------------------------------


    POTLOK:  cpu time    0.8479: real time    0.7551
    SETDIJ:  cpu time    0.1136: real time    0.0661
    EDDIAG:  cpu time   60.3943: real time   30.2867
  RMM-DIIS:  cpu time  215.9505: real time  109.0503
    ORTHCH:  cpu time    8.0900: real time    4.1157
       DOS:  cpu time    0.1821: real time    0.0913
    CHARGE:  cpu time    8.5029: real time    8.1660
    MIXING:  cpu time    0.1119: real time    0.0604
    --------------------------------------------
      LOOP:  cpu time  294.1935: real time  152.5916

 eigenvalue-minimisations  : 15362
 total energy-change (2. order) :-0.7025435E+02  (-0.7682368E+01)
 number of electron     732.9999806 magnetization      69.9401512
 augmentation part      268.0891060 magnetization      55.5658389

 DIPCOR: dipole corrections for dipol
 direction  3 min pos     1,
 dipolmoment           0.000000      0.000000     -2.250430 electrons x Angstroem
 Tr[quadrupol]    -14910.280173

 energy correction for charged system         0.000000 eV
 dipol+quadrupol energy correction           -0.126642 eV
 added-field ion interaction         56.042566 eV  (added to PSCEN)


 Broyden mixing:
  rms(total) = 0.91871E+01    rms(broyden)= 0.91844E+01
  rms(prec ) = 0.12326E+02
  weight for this iteration     100.00

 eigenvalues of (default mixing * dielectric matrix)
  average eigenvalue GAMMA=   0.6777
  1.4646  0.4116  0.1568

 Free energy of the ion-electron system (eV)
  ---------------------------------------------------
  alpha Z        PSCENC =       977.79138982
  Ewald energy   TEWEN  =    428624.65693863
  -Hartree energ DENC   =   -486376.27519991
  -exchange      EXHF   =         0.00000000
  -V(xc)+E(xc)   XCENC  =     -1443.72890198
  PAW double counting   =     66305.87958332   -62477.61522893
  entropy T*S    EENTRO =        -0.10162175
  eigenvalues    EBANDS =     -3735.16053475
  atomic energy  EATOM  =     57661.98971508
  Solvation  Ediel_sol  =         0.00000000
  ---------------------------------------------------
  free energy    TOTEN  =      -462.56386046 eV

  energy without entropy =     -462.46223871  energy(sigma->0) =     -462.52998654


--------------------------------------------------------------------------------------------------------




--------------------------------------- Iteration      1(   9)  ---------------------------------------


    POTLOK:  cpu time    0.9811: real time    0.9855
    SETDIJ:  cpu time    0.2219: real time    0.1585
    EDDIAG:  cpu time   60.7749: real time   30.5666
  RMM-DIIS:  cpu time  214.1081: real time  108.4207
    ORTHCH:  cpu time   13.0767: real time    9.0746
       DOS:  cpu time    0.1449: real time    0.0857
    CHARGE:  cpu time    8.2073: real time    7.9261
    MIXING:  cpu time    0.0746: real time    0.0520
    --------------------------------------------
      LOOP:  cpu time  297.5896: real time  157.2698

 eigenvalue-minimisations  : 15360
 total energy-change (2. order) : 0.5026331E+02  (-0.3571456E+01)
 number of electron     732.9999677 magnetization      67.6609011
 augmentation part      279.5837872 magnetization      55.5743857

 DIPCOR: dipole corrections for dipol
 direction  3 min pos     1,
 dipolmoment           0.000000      0.000000      1.771554 electrons x Angstroem
 Tr[quadrupol]    -14906.846626

 energy correction for charged system         0.000000 eV
 dipol+quadrupol energy correction           -0.078480 eV
 added-field ion interaction        -44.117106 eV  (added to PSCEN)


 Broyden mixing:
  rms(total) = 0.59676E+01    rms(broyden)= 0.59604E+01
  rms(prec ) = 0.73918E+01
  weight for this iteration     100.00

 eigenvalues of (default mixing * dielectric matrix)
  average eigenvalue GAMMA=   0.6227
  1.6760  0.4399  0.2823  0.0926

 Free energy of the ion-electron system (eV)
  ---------------------------------------------------
  alpha Z        PSCENC =       877.67988079
  Ewald energy   TEWEN  =    428624.65693863
  -Hartree energ DENC   =   -486454.38955420
  -exchange      EXHF   =         0.00000000
  -V(xc)+E(xc)   XCENC  =     -1438.49844204
  PAW double counting   =     67296.93127938   -63483.87785422
  entropy T*S    EENTRO =         0.00866957
  eigenvalues    EBANDS =     -3496.80118834
  atomic energy  EATOM  =     57661.98971508
  Solvation  Ediel_sol  =         0.00000000
  ---------------------------------------------------
  free energy    TOTEN  =      -412.30055535 eV

  energy without entropy =     -412.30922492  energy(sigma->0) =     -412.30344521


--------------------------------------------------------------------------------------------------------




--------------------------------------- Iteration      1(  10)  ---------------------------------------


    POTLOK:  cpu time    0.8115: real time    0.8859
    SETDIJ:  cpu time    0.1109: real time    0.0720
    EDDIAG:  cpu time   61.4417: real time   30.8275
  RMM-DIIS:  cpu time  215.1643: real time  108.9700
    ORTHCH:  cpu time    8.0161: real time    4.0764
       DOS:  cpu time    0.2356: real time    0.1182
    CHARGE:  cpu time    8.6353: real time    8.2707
    MIXING:  cpu time    0.1894: real time    0.1134
    --------------------------------------------
      LOOP:  cpu time  294.6046: real time  153.3342

 eigenvalue-minimisations  : 15368
 total energy-change (2. order) : 0.4154993E+02  (-0.2938176E+01)
 number of electron     732.9999709 magnetization      66.2562702
 augmentation part      277.9601438 magnetization      50.3778255

 DIPCOR: dipole corrections for dipol
 direction  3 min pos     1,
 dipolmoment           0.000000      0.000000      0.155725 electrons x Angstroem
 Tr[quadrupol]    -14914.280015

 energy correction for charged system         0.000000 eV
 dipol+quadrupol energy correction           -0.000606 eV
 added-field ion interaction         -3.878021 eV  (added to PSCEN)


 Broyden mixing:
  rms(total) = 0.32918E+01    rms(broyden)= 0.32912E+01
  rms(prec ) = 0.35212E+01
  weight for this iteration     100.00

 eigenvalues of (default mixing * dielectric matrix)
  average eigenvalue GAMMA=   0.6064
  1.8331  0.5660  0.2699  0.2699  0.0929

 Free energy of the ion-electron system (eV)
  ---------------------------------------------------
  alpha Z        PSCENC =       917.99683864
  Ewald energy   TEWEN  =    428624.65693863
  -Hartree energ DENC   =   -486636.65369660
  -exchange      EXHF   =         0.00000000
  -V(xc)+E(xc)   XCENC  =     -1439.13737194
  PAW double counting   =     68536.20229941   -64734.85899482
  entropy T*S    EENTRO =        -0.17454988
  eigenvalues    EBANDS =     -3300.77180784
  atomic energy  EATOM  =     57661.98971508
  Solvation  Ediel_sol  =         0.00000000
  ---------------------------------------------------
  free energy    TOTEN  =      -370.75062932 eV

  energy without entropy =     -370.57607944  energy(sigma->0) =     -370.69244602


--------------------------------------------------------------------------------------------------------




--------------------------------------- Iteration      1(  11)  ---------------------------------------


    POTLOK:  cpu time    1.0783: real time    1.1181
    SETDIJ:  cpu time    0.3422: real time    0.1805
    EDDIAG:  cpu time   61.2475: real time   30.7444
  RMM-DIIS:  cpu time  214.3428: real time  108.6173
    ORTHCH:  cpu time    8.1509: real time    4.1293
       DOS:  cpu time    0.4206: real time    0.2222
    CHARGE:  cpu time    8.5465: real time    8.2089
    MIXING:  cpu time    0.2762: real time    0.1756
    --------------------------------------------
      LOOP:  cpu time  294.4049: real time  153.3962

 eigenvalue-minimisations  : 15386
 total energy-change (2. order) : 0.5765937E+01  (-0.1485007E+01)
 number of electron     732.9999721 magnetization      64.1912598
 augmentation part      279.5229619 magnetization      50.6014723

 DIPCOR: dipole corrections for dipol
 direction  3 min pos     1,
 dipolmoment           0.000000      0.000000      0.379234 electrons x Angstroem
 Tr[quadrupol]    -14913.723440

 energy correction for charged system         0.000000 eV
 dipol+quadrupol energy correction           -0.003596 eV
 added-field ion interaction         -9.444091 eV  (added to PSCEN)


 Broyden mixing:
  rms(total) = 0.21167E+01    rms(broyden)= 0.21162E+01
  rms(prec ) = 0.23932E+01
  weight for this iteration     100.00

 eigenvalues of (default mixing * dielectric matrix)
  average eigenvalue GAMMA=   0.6102
  1.9145  0.7521  0.3347  0.3347  0.2345  0.0908

 Free energy of the ion-electron system (eV)
  ---------------------------------------------------
  alpha Z        PSCENC =       912.42777881
  Ewald energy   TEWEN  =    428624.65693863
  -Hartree energ DENC   =   -486626.27927303
  -exchange      EXHF   =         0.00000000
  -V(xc)+E(xc)   XCENC  =     -1440.80888322
  PAW double counting   =     68928.46879061   -65129.20217092
  entropy T*S    EENTRO =        -0.02219149
  eigenvalues    EBANDS =     -3296.21539724
  atomic energy  EATOM  =     57661.98971508
  Solvation  Ediel_sol  =         0.00000000
  ---------------------------------------------------
  free energy    TOTEN  =      -364.98469277 eV

  energy without entropy =     -364.96250128  energy(sigma->0) =     -364.97729561


--------------------------------------------------------------------------------------------------------




--------------------------------------- Iteration      1(  12)  ---------------------------------------


    POTLOK:  cpu time    1.0873: real time    1.1364
    SETDIJ:  cpu time    0.2722: real time    0.1670
    EDDIAG:  cpu time   61.5539: real time   30.9750
  RMM-DIIS:  cpu time  215.2061: real time  109.2800
    ORTHCH:  cpu time    8.0065: real time    4.1072
       DOS:  cpu time    0.1449: real time    0.0928
    CHARGE:  cpu time    8.5636: real time    8.3510
    MIXING:  cpu time    0.0950: real time    0.1930
    --------------------------------------------
      LOOP:  cpu time  294.9294: real time  154.3029

 eigenvalue-minimisations  : 15390
 total energy-change (2. order) :-0.8324157E+00  (-0.5196847E+00)
 number of electron     732.9999717 magnetization      62.3693090
 augmentation part      276.8377250 magnetization      47.5637427

 DIPCOR: dipole corrections for dipol
 direction  3 min pos     1,
 dipolmoment           0.000000      0.000000      0.239689 electrons x Angstroem
 Tr[quadrupol]    -14917.300260

 energy correction for charged system         0.000000 eV
 dipol+quadrupol energy correction           -0.001437 eV
 added-field ion interaction         -5.968998 eV  (added to PSCEN)


 Broyden mixing:
  rms(total) = 0.17392E+01    rms(broyden)= 0.17388E+01
  rms(prec ) = 0.19040E+01
  weight for this iteration     100.00

 eigenvalues of (default mixing * dielectric matrix)
  average eigenvalue GAMMA=   0.5901
  1.9302  0.7896  0.3906  0.3906  0.2910  0.2476  0.0911

 Free energy of the ion-electron system (eV)
  ---------------------------------------------------
  alpha Z        PSCENC =       915.90503157
  Ewald energy   TEWEN  =    428624.65693863
  -Hartree energ DENC   =   -486781.57771542
  -exchange      EXHF   =         0.00000000
  -V(xc)+E(xc)   XCENC  =     -1442.65968094
  PAW double counting   =     69177.73268049   -65375.19199732
  entropy T*S    EENTRO =        -0.09283052
  eigenvalues    EBANDS =     -3146.57925005
  atomic energy  EATOM  =     57661.98971508
  Solvation  Ediel_sol  =         0.00000000
  ---------------------------------------------------
  free energy    TOTEN  =      -365.81710849 eV

  energy without entropy =     -365.72427797  energy(sigma->0) =     -365.78616498


--------------------------------------------------------------------------------------------------------




--------------------------------------- Iteration      1(  13)  ---------------------------------------


    POTLOK:  cpu time    0.7298: real time    0.7772
    SETDIJ:  cpu time    0.1017: real time    0.0679
    EDDIAG:  cpu time   60.6369: real time   30.4540
  RMM-DIIS:  cpu time  215.2020: real time  109.1231
    ORTHCH:  cpu time    8.0340: real time    4.0684
       DOS:  cpu time    0.1414: real time    0.0765
    CHARGE:  cpu time    8.4572: real time    8.2400
    MIXING:  cpu time    0.1841: real time    0.1060
    --------------------------------------------
      LOOP:  cpu time  293.4871: real time  152.9144

 eigenvalue-minimisations  : 15394
 total energy-change (2. order) :-0.3723005E+01  (-0.2240567E+00)
 number of electron     732.9999718 magnetization      60.5660158
 augmentation part      276.7323699 magnetization      46.3121554

 DIPCOR: dipole corrections for dipol
 direction  3 min pos     1,
 dipolmoment           0.000000      0.000000      0.365717 electrons x Angstroem
 Tr[quadrupol]    -14917.559033

 energy correction for charged system         0.000000 eV
 dipol+quadrupol energy correction           -0.003345 eV
 added-field ion interaction         -9.107473 eV  (added to PSCEN)


 Broyden mixing:
  rms(total) = 0.17385E+01    rms(broyden)= 0.17383E+01
  rms(prec ) = 0.19752E+01
  weight for this iteration     100.00

 eigenvalues of (default mixing * dielectric matrix)
  average eigenvalue GAMMA=   0.5830
  1.9110  0.7637  0.7637  0.0910  0.3294  0.2978  0.2978  0.2100

 Free energy of the ion-electron system (eV)
  ---------------------------------------------------
  alpha Z        PSCENC =       912.76464835
  Ewald energy   TEWEN  =    428624.65693863
  -Hartree energ DENC   =   -486802.03680143
  -exchange      EXHF   =         0.00000000
  -V(xc)+E(xc)   XCENC  =     -1445.05183485
  PAW double counting   =     69315.76897742   -65512.34567457
  entropy T*S    EENTRO =        -0.03863722
  eigenvalues    EBANDS =     -3125.24744452
  atomic energy  EATOM  =     57661.98971508
  Solvation  Ediel_sol  =         0.00000000
  ---------------------------------------------------
  free energy    TOTEN  =      -369.54011311 eV

  energy without entropy =     -369.50147589  energy(sigma->0) =     -369.52723403


--------------------------------------------------------------------------------------------------------




--------------------------------------- Iteration      1(  14)  ---------------------------------------


    POTLOK:  cpu time    0.7253: real time    0.8040
    SETDIJ:  cpu time    0.1280: real time    0.1031
    EDDIAG:  cpu time   60.5981: real time   30.6493
  RMM-DIIS:  cpu time  215.2610: real time  108.2427
    ORTHCH:  cpu time    8.1201: real time    4.1260
       DOS:  cpu time    0.2211: real time    0.1180
    CHARGE:  cpu time    8.8503: real time    8.5290
    MIXING:  cpu time    0.1693: real time    0.0898
    --------------------------------------------
      LOOP:  cpu time  294.0731: real time  152.6600

 eigenvalue-minimisations  : 15389
 total energy-change (2. order) :-0.2141816E+01  (-0.1443542E+00)
 number of electron     732.9999720 magnetization      56.0291194
 augmentation part      276.8678024 magnetization      42.3652460

 DIPCOR: dipole corrections for dipol
 direction  3 min pos     1,
 dipolmoment           0.000000      0.000000      0.386381 electrons x Angstroem
 Tr[quadrupol]    -14917.961420

 energy correction for charged system         0.000000 eV
 dipol+quadrupol energy correction           -0.003733 eV
 added-field ion interaction         -9.622076 eV  (added to PSCEN)


 Broyden mixing:
  rms(total) = 0.15451E+01    rms(broyden)= 0.15450E+01
  rms(prec ) = 0.17611E+01
  weight for this iteration     100.00

 eigenvalues of (default mixing * dielectric matrix)
  average eigenvalue GAMMA=   0.6182
  1.8274  1.0779  1.0779  0.4407  0.3172  0.3172  0.0910  0.2272  0.1871

 Free energy of the ion-electron system (eV)
  ---------------------------------------------------
  alpha Z        PSCENC =       912.24965683
  Ewald energy   TEWEN  =    428624.65693863
  -Hartree energ DENC   =   -486815.78230457
  -exchange      EXHF   =         0.00000000
  -V(xc)+E(xc)   XCENC  =     -1446.68079398
  PAW double counting   =     69413.63649138   -65609.89929629
  entropy T*S    EENTRO =        -0.05009716
  eigenvalues    EBANDS =     -3111.80223896
  atomic energy  EATOM  =     57661.98971508
  Solvation  Ediel_sol  =         0.00000000
  ---------------------------------------------------
  free energy    TOTEN  =      -371.68192903 eV

  energy without entropy =     -371.63183187  energy(sigma->0) =     -371.66522998


--------------------------------------------------------------------------------------------------------




[...]
      1.31860      3.03718     19.44178         0.002991      0.025672      0.000234
      1.36804      5.08656     19.25001         0.001024     -0.004674     -0.003195
      4.85976      4.33077     20.53505        -0.004066     -0.001058     -0.001809
      4.25432     10.16915     20.48741        -0.004344     -0.002124     -0.001198
      8.07431      4.19594     20.66585         0.002112     -0.002799     -0.005021
     10.00308     10.15996     20.49774         0.009823     -0.000855      0.000593
      6.61866      7.42445     20.50404         0.002052     -0.001159      0.003415
      7.22436      0.95263     20.55092        -0.001034      0.006101     -0.001389
      1.49825      8.44272     20.63377         0.000064     -0.005976      0.006463
      1.30353      2.61087     20.56307         0.005079      0.000626      0.000759
      1.37275      1.37275     12.08797        -0.015553      0.017903     -0.019988
      1.37275      4.11824     12.08797        -0.014865     -0.012876     -0.015403
      1.37275      6.86373     12.08797        -0.014854     -0.009777     -0.037789
      1.37275      9.60922     12.08797        -0.020566     -0.004595     -0.004934
      4.11824      1.37275     12.08797         0.027354      0.035526      0.035236
      4.11824      4.11824     12.08797         0.010992      0.056894     -0.004110
      4.11824      6.86373     12.08797        -0.028063      0.045278      0.007128
      4.11824      9.60922     12.08797        -0.020817      0.030448      0.000185
      6.86373      1.37275     12.08797         0.004140      0.042552     -0.017763
      6.86373      4.11824     12.08797         0.001268     -0.029312     -0.012459
      6.86373      6.86373     12.08797         0.003707      0.029735      0.053353
      6.86373      9.60922     12.08797        -0.019119      0.030462     -0.023556
      9.60922      1.37275     12.08797         0.006958     -0.036652      0.057399
      9.60922      4.11824     12.08797         0.026833      0.014465     -0.017664
      9.60922      6.86373     12.08797        -0.004412     -0.030754      0.010818
      9.60922      9.60922     12.08797         0.021169     -0.011503      0.005475
     10.97190     10.96801     14.05023        -0.002160     -0.007496      0.002275
      0.00360      2.73362     14.04496         0.003531     -0.001777      0.001589
     10.97569      5.49255     14.05005         0.001297     -0.002440      0.003158
     10.96531      8.22256     14.04735         0.004415     -0.004512      0.004106
      2.75927      0.00942     14.03497         0.001180     -0.009305     -0.003317
      2.74554      2.75120     14.04117         0.000942     -0.005032     -0.007950
      2.74037      5.50777     14.04409         0.000479     -0.006292      0.001892
      2.73364      8.23606     14.04470        -0.001183     -0.001300     -0.006909
      5.50184      0.02704     14.05193         0.003403     -0.002890      0.000628
      5.49081      2.76593     14.04710         0.001760     -0.002967      0.000331
      5.48892      5.51858     14.03831         0.001658      0.000206      0.004007
      5.48266      8.26096     14.04599        -0.002541     -0.004135     -0.000208
      8.23838     10.98043     14.05321        -0.002046     -0.001390      0.005010
      8.23808      2.74232     14.03889        -0.001316      0.003848     -0.005741
      8.24614      5.49129     14.04502         0.001867     -0.000119      0.002326
      8.23367      8.23475     14.04570         0.003777      0.000534     -0.012240
      1.39332      1.32299     16.00037         0.007786     -0.003199     -0.004347
      1.37636      4.10913     15.98399         0.006448     -0.009287      0.001647
      1.34801      6.86890     16.01431        -0.000126      0.000629      0.003381
      1.37133      9.60613     15.98356         0.003146     -0.012644     -0.006701
      4.13864      1.42684     16.02129         0.000422     -0.005502      0.001722
      4.10925      4.18807     15.99006        -0.000489     -0.000565     -0.005279
      4.09946      6.90687     16.03579         0.002055     -0.010737      0.002199
      4.12235      9.63849     15.99364        -0.000105     -0.000187     -0.004119
      6.88226      1.41847     16.03675         0.001370     -0.005611     -0.000574
      6.86587      4.14758     15.99515         0.000791      0.001856     -0.001143
      6.85229      6.88077     15.99296         0.000989      0.001815     -0.005365
      6.85894      9.64475     16.00584        -0.001342      0.001572     -0.001326
      9.60235      1.36927     16.01555        -0.006079     -0.002670      0.001803
      9.59855      4.08273     16.00609        -0.004473      0.001358     -0.002050
      9.59740      6.83748     16.07764        -0.002802     -0.004874      0.001931
      9.59098      9.55316     16.03650         0.001616     -0.006609      0.000248
      0.10957      0.03438     17.99672         0.001302     -0.006505     -0.005937
     10.91733      2.70630     18.00207        -0.002702      0.000957     -0.000256
      0.04892      5.48705     18.00496         0.005439     -0.006764     -0.001666
     10.81274      8.30310     18.20083        -0.005017     -0.002745      0.000441
      2.87451     10.89995     18.05167        -0.005444     -0.011309     -0.000668
      2.69830      2.63426     18.01259        -0.000888     -0.007060      0.003426
      2.85733      5.40040     18.12996         0.007128     -0.012671     -0.000728
      2.65173      8.17936     18.02254        -0.003432     -0.008195      0.001910
      5.64633      0.25472     18.11071        -0.007586     -0.002244     -0.002400
      5.37587      2.97695     18.04240         0.006035      0.000819     -0.003073
      5.61845      5.75562     18.09500         0.007318     -0.006203     -0.003281
      5.31958      8.49703     18.11023         0.001226     -0.003731      0.001005
      8.35906     10.83078     18.08480        -0.010100      0.009448      0.002266
      8.11937      2.61082     18.17725         0.000254     -0.000056     -0.002487
      8.33765      5.40494     18.06824         0.003644     -0.009457      0.009518
      8.06003      8.10518     18.07640        -0.002467      0.002729      0.000645
 -----------------------------------------------------------------------------------
    total drift:                                0.003903     -0.001353      0.018100


--------------------------------------------------------------------------------------------------------



  FREE ENERGIE OF THE ION-ELECTRON SYSTEM (eV)
  ---------------------------------------------------
  free  energy   TOTEN  =      -459.16821073 eV

  energy  without entropy=     -459.03241741  energy(sigma->0) =     -459.12294629
 


--------------------------------------------------------------------------------------------------------


    POTLOK:  cpu time    0.8311: real time    0.9290


--------------------------------------------------------------------------------------------------------


 NEB: the previous image is higher in energy: F
 NEB: the next image is higher in energy    : F
 NEB: image is at an extrema
 NEB: diff energy (min, max):     0.258151    0.420419

 NEB: Tangent
 ----------------------------------------------
     -0.30849      0.14211     -0.09739
     -0.00351      0.03882      0.00638
     -0.06304      0.01788      0.00569
     -0.00270     -0.00567     -0.00976
     -0.00693      0.02272     -0.01046
     -0.00442      0.00999      0.00386
     -0.01565     -0.06005     -0.01196
      0.01981      0.66872      0.08035
     -0.01380     -0.29555      0.07667
     -0.34670      0.15064     -0.08638
     -0.00714      0.02624      0.00572
     -0.07359      0.02713      0.00191
      0.01005     -0.00428     -0.01088
     -0.00910     -0.00425     -0.00951
     -0.00347      0.00153      0.00349
     -0.02366     -0.10845     -0.00093
      0.03471      0.29848      0.02911
      0.00000      0.00000      0.00000
      0.00000      0.00000      0.00000
      0.00000      0.00000      0.00000
      0.00000      0.00000      0.00000
      0.00000      0.00000      0.00000
      0.00000      0.00000      0.00000
      0.00000      0.00000      0.00000
      0.00000      0.00000      0.00000
      0.00000      0.00000      0.00000
      0.00000      0.00000      0.00000
      0.00000      0.00000      0.00000
      0.00000      0.00000      0.00000
      0.00000      0.00000      0.00000
      0.00000      0.00000      0.00000
      0.00000      0.00000      0.00000
      0.00000      0.00000      0.00000
     -0.00444     -0.00261      0.00400
      0.00007     -0.00302     -0.00087
      0.00981     -0.00094      0.00090
      0.00475     -0.00469      0.00378
     -0.00369      0.00141      0.00072
     -0.00632     -0.00179     -0.00239
      0.00458      0.00200     -0.00295
      0.00292     -0.00008     -0.00034
     -0.00236      0.00777      0.00199
     -0.00053      0.00358     -0.00037
      0.00812      0.01090     -0.00858
      0.00174      0.01110     -0.00164
     -0.00309      0.00709      0.00318
     -0.00144      0.00186     -0.00237
      0.00907      0.00376     -0.00534
      0.00811      0.00831     -0.00594
     -0.01014     -0.01322      0.00560
      0.01114     -0.00551      0.00614
      0.02297     -0.01586      0.01240
      0.00195     -0.01161      0.00160
     -0.01681      0.00554      0.00423
      0.01139      0.01272     -0.03470
      0.00300      0.01088     -0.00125
     -0.00472      0.00874      0.00068
     -0.00588      0.01826      0.00211
      0.00924      0.01672      0.00070
      0.02218      0.01867     -0.02763
     -0.00653      0.01510     -0.00007
     -0.00144      0.01021      0.01225
     -0.00063      0.00072     -0.01932
      0.02232     -0.00785      0.00662
     -0.00832     -0.00449     -0.00228
     -0.02046     -0.01872     -0.01831
     -0.00823     -0.01838     -0.00539
      0.06228     -0.01341     -0.00380
     -0.00276     -0.01540     -0.00640
     -0.02203     -0.01371      0.01298
     -0.00214     -0.02070     -0.02458
      0.07671     -0.05450      0.08625
     -0.00006     -0.03300      0.00950
     -0.01371      0.04665      0.00528
     -0.01819      0.06899     -0.00402
      0.06453      0.04788     -0.04736
     -0.00729      0.04076      0.00624
     -0.01363      0.00761     -0.00198
     -0.02342      0.01298      0.01224
      0.04930      0.00602      0.00297
     -0.00388      0.00514     -0.01045

 NEB: forces: par spring, perp REAL, dneb     3.937672    0.060978    0.000000
 NEB: distance to prev, next image, angle between     1.541186    0.753651  138.356506
 NEB: projections on to tangent (spring, REAL)    -3.937672    0.026080

 stress matrix after NEB project (eV)
    -44.12243      0.39999      0.16570
      0.39999    -42.10116     -0.74374
      0.16570     -0.74374    -12.08253
  FORCES: max atom, RMS     0.016830    0.007369
  FORCE total and by dimension    0.066321    0.014943
  Stress total and by dimension   62.183315   44.122426
 Quasi-Newton relaxation of ions (Broydens 2nd method)
  g(Force)  = 0.116E-02   g(Stress)= 0.000E+00

 Reset! Starting new Quasi-Newton update for ions 


--------------------------------------------------------------------------------------------------------


  
 reached required accuracy - stopping structural energy minimisation
     LOOP+:  cpu time20028.7806: real time10588.2431
    4ORBIT:  cpu time    0.0000: real time    0.0000
 


 total charge     
 
# of ion       s       p       d       tot
------------------------------------------
    1        1.302   2.354   0.000   3.656
    2        1.296   2.356   0.000   3.652
    3        1.309   2.371   0.000   3.681
    4        1.298   2.355   0.000   3.653
    5        1.295   2.358   0.000   3.653
    6        1.296   2.355   0.000   3.651
    7        1.316   2.363   0.000   3.679
    8        1.309   2.341   0.000   3.651
    9        1.353   2.125   0.000   3.478
   10        1.637   3.436   0.000   5.073
   11        1.636   3.434   0.000   5.071
   12        1.640   3.438   0.000   5.078
   13        1.636   3.436   0.000   5.072
   14        1.636   3.435   0.000   5.070
   15        1.636   3.437   0.000   5.073
   16        1.641   3.440   0.000   5.081
   17        1.637   3.446   0.000   5.083
   18        0.444   0.306   8.520   9.270
   19        0.440   0.306   8.522   9.268
   20        0.444   0.306   8.523   9.274
   21        0.439   0.305   8.522   9.267
   22        0.444   0.308   8.516   9.269
   23        0.444   0.305   8.522   9.272
   24        0.443   0.309   8.518   9.270
   25        0.447   0.304   8.520   9.271
   26        0.444   0.306   8.520   9.271
   27        0.442   0.307   8.520   9.269
   28        0.447   0.306   8.517   9.269
   29        0.437   0.307   8.524   9.268
   30        0.444   0.307   8.516   9.267
   31        0.444   0.306   8.522   9.272
   32        0.444   0.309   8.518   9.271
   33        0.447   0.305   8.520   9.271
   34        0.480   0.468   8.467   9.414
   35        0.480   0.470   8.468   9.418
   36        0.480   0.469   8.465   9.415
   37        0.482   0.468   8.474   9.424
   38        0.482   0.471   8.470   9.423
   39        0.482   0.469   8.474   9.425
   40        0.483   0.474   8.465   9.422
   41        0.482   0.473   8.467   9.421
   42        0.482   0.467   8.475   9.425
   43        0.480   0.471   8.466   9.417
   44        0.482   0.471   8.468   9.422
   45        0.482   0.471   8.468   9.420
   46        0.480   0.466   8.474   9.420
   47        0.483   0.473   8.469   9.424
   48        0.480   0.468   8.472   9.421
   49        0.480   0.467   8.473   9.419
   50        0.487   0.463   8.480   9.431
   51        0.466   0.442   8.490   9.398
   52        0.470   0.444   8.486   9.399
   53        0.476   0.448   8.491   9.416
   54        0.478   0.450   8.486   9.414
   55        0.481   0.452   8.488   9.421
   56        0.481   0.444   8.490   9.415
   57        0.485   0.456   8.487   9.429
   58        0.489   0.452   8.482   9.424
   59        0.469   0.439   8.495   9.402
   60        0.483   0.456   8.483   9.422
   61        0.471   0.440   8.488   9.400
   62        0.480   0.450   8.484   9.414
   63        0.481   0.451   8.487   9.419
   64        0.485   0.450   8.486   9.422
   65        0.481   0.445   8.486   9.413
   66        0.472   0.450   8.561   9.482
   67        0.459   0.433   8.546   9.439
   68        0.535   0.530   8.492   9.557
   69        0.434   0.470   8.505   9.409
   70        0.457   0.412   8.538   9.408
   71        0.461   0.435   8.546   9.442
   72        0.487   0.502   8.489   9.478
   73        0.480   0.479   8.537   9.496
   74        0.448   0.503   8.518   9.469
   75        0.461   0.434   8.547   9.441
   76        0.445   0.486   8.528   9.459
   77        0.441   0.478   8.530   9.449
   78        0.453   0.511   8.521   9.485
   79        0.447   0.512   8.495   9.453
   80        0.482   0.486   8.530   9.498
   81        0.450   0.418   8.545   9.412
--------------------------------------------------
tot         54.744  75.621 544.054 674.419
 


 magnetization (x)
 
# of ion       s       p       d       tot
------------------------------------------
    1       -0.000  -0.000   0.000  -0.000
    2       -0.000  -0.001   0.000  -0.001
    3       -0.000  -0.000   0.000  -0.000
    4       -0.000  -0.001   0.000  -0.001
    5       -0.000  -0.000   0.000  -0.001
    6       -0.000  -0.000   0.000  -0.000
    7        0.000  -0.001   0.000  -0.001
    8       -0.000  -0.000   0.000  -0.000
    9       -0.000  -0.001   0.000  -0.001
   10       -0.000  -0.000   0.000  -0.001
   11       -0.000  -0.001   0.000  -0.001
   12       -0.000  -0.000   0.000  -0.000
   13       -0.000  -0.001   0.000  -0.001
   14       -0.000  -0.001   0.000  -0.001
   15       -0.000  -0.001   0.000  -0.001
   16       -0.000  -0.001   0.000  -0.001
   17       -0.000  -0.000   0.000  -0.000
   18       -0.000  -0.001   0.033   0.033
   19       -0.000  -0.000   0.038   0.037
   20       -0.000  -0.000   0.036   0.035
   21       -0.000  -0.000   0.035   0.034
   22       -0.000  -0.000   0.034   0.034
   23        0.000  -0.000   0.035   0.034
   24       -0.000  -0.000   0.035   0.034
   25       -0.000  -0.000   0.031   0.031
   26       -0.000  -0.000   0.032   0.032
   27       -0.000  -0.000   0.034   0.033
   28       -0.000  -0.000   0.034   0.033
   29       -0.000  -0.000   0.033   0.032
   30       -0.000  -0.000   0.033   0.033
   31       -0.000  -0.000   0.034   0.033
   32       -0.000  -0.000   0.036   0.035
   33       -0.000  -0.000   0.031   0.031
   34       -0.000  -0.001   0.034   0.033
   35       -0.000  -0.001   0.036   0.035
   36       -0.000  -0.001   0.035   0.034
   37       -0.000  -0.001   0.034   0.033
   38       -0.000  -0.001   0.035   0.035
   39       -0.000  -0.001   0.035   0.034
   40       -0.000  -0.001   0.036   0.035
   41       -0.000  -0.001   0.036   0.035
   42       -0.000  -0.001   0.031   0.030
   43       -0.000  -0.001   0.035   0.034
   44       -0.000  -0.001   0.037   0.036
   45       -0.000  -0.001   0.033   0.032
   46       -0.000  -0.001   0.031   0.030
   47       -0.000  -0.001   0.032   0.032
   48       -0.000  -0.001   0.036   0.035
   49       -0.000  -0.001   0.033   0.032
   50       -0.000  -0.001   0.021   0.020
   51       -0.000  -0.000   0.024   0.023
   52       -0.000  -0.000   0.022   0.021
   53       -0.000  -0.001   0.028   0.027
   54       -0.000  -0.001   0.020   0.019
   55       -0.000  -0.001   0.022   0.021
   56       -0.000  -0.001   0.021   0.020
   57       -0.000  -0.001   0.020   0.019
   58       -0.000  -0.001   0.016   0.015
   59       -0.000  -0.001   0.026   0.025
   60       -0.000  -0.001   0.018   0.017
   61       -0.000  -0.001   0.025   0.025
   62       -0.000  -0.001   0.021   0.020
   63       -0.000  -0.001   0.022   0.021
   64       -0.000  -0.001   0.015   0.014
   65       -0.000  -0.001   0.017   0.016
   66       -0.000  -0.000   0.003   0.003
   67       -0.000  -0.000   0.003   0.002
   68       -0.000  -0.000   0.001   0.000
   69       -0.000  -0.000   0.002   0.001
   70       -0.000  -0.000   0.003   0.003
   71       -0.000  -0.000   0.003   0.003
   72       -0.000  -0.000   0.000  -0.000
   73       -0.000  -0.000   0.003   0.002
   74       -0.000  -0.000   0.001   0.001
   75       -0.000  -0.000   0.003   0.003
   76       -0.000  -0.000   0.002   0.001
   77       -0.000  -0.000   0.001   0.001
   78       -0.000  -0.000   0.002   0.001
   79       -0.000  -0.000   0.001   0.001
   80       -0.000  -0.000   0.002   0.002
   81       -0.000  -0.000   0.003   0.002
--------------------------------------------------
tot         -0.010  -0.042   1.460   1.407
 

 total amount of memory used by VASP MPI-rank0   524481. kBytes
=======================================================================

   base      :      30000. kBytes
   nonlr-proj:      13973. kBytes
   fftplans  :      18152. kBytes
   grid      :      48955. kBytes
   one-center:        279. kBytes
   wavefun   :     413122. kBytes
 
  
  
 General timing and accounting informations for this job:
 ========================================================
  
                  Total CPU time used (sec):    20100.625
                            User time (sec):    19118.588
                          System time (sec):      982.037
                         Elapsed time (sec):    10697.574
  
                   Maximum memory used (kb):      835696.
                   Average memory used (kb):           0.
  
                          Minor page faults:     12203111
                          Major page faults:         1212
                 Voluntary context switches:       112053
