 vasp.5.4.4.18Apr17-6-g9f103f2a35 (build Jun 11 2020 13:42:08) complex          
  
 executed on             LinuxIFC date 2021.11.09  17:33:08
 running on   48 total cores
 each image running on   12 cores
 distrk:  each k-point on   12 cores,    1 groups
 distr:  one band on NCORES_PER_BAND=  12 cores,    1 groups


--------------------------------------------------------------------------------------------------------


 INCAR:
 POTCAR:    PAW_PBE Cu 22Jun2005                  
 POTCAR:    PAW_PBE N 08Apr2002                   
 POTCAR:    PAW_PBE O 08Apr2002                   
 POTCAR:    PAW_PBE H 15Jun2001                   

 ----------------------------------------------------------------------------- 
|                                                                             |
|           W    W    AA    RRRRR   N    N  II  N    N   GGGG   !!!           |
|           W    W   A  A   R    R  NN   N  II  NN   N  G    G  !!!           |
|           W    W  A    A  R    R  N N  N  II  N N  N  G       !!!           |
|           W WW W  AAAAAA  RRRRR   N  N N  II  N  N N  G  GGG   !            |
|           WW  WW  A    A  R   R   N   NN  II  N   NN  G    G                |
|           W    W  A    A  R    R  N    N  II  N    N   GGGG   !!!           |
|                                                                             |
|      For optimal performance we recommend to set                            |
|        NCORE= 4 - approx SQRT( number of cores)                             |
|      NCORE specifies how many cores store one orbital (NPAR=cpu/NCORE).     |
|      This setting can  greatly improve the performance of VASP for DFT.     |
|      The default,   NCORE=1            might be grossly inefficient         |
|      on modern multi-core architectures or massively parallel machines.     |
|      Do your own testing !!!!                                               |
|      Unfortunately you need to use the default for GW and RPA calculations. |
|      (for HF NCORE is supported but not extensively tested yet)             |
|                                                                             |
 ----------------------------------------------------------------------------- 

 POTCAR:    PAW_PBE Cu 22Jun2005                  
   VRHFIN =Cu: d10 p1                                                           
   LEXCH  = PE                                                                  
   EATOM  =  1390.9808 eV,  102.2342 Ry                                         
                                                                                
   TITEL  = PAW_PBE Cu 22Jun2005                                                
   LULTRA =        F    use ultrasoft PP ?                                      
   IUNSCR =        1    unscreen: 0-lin 1-nonlin 2-no                           
   RPACOR =    2.000    partial core radius                                     
   POMASS =   63.546; ZVAL   =   11.000    mass and valenz                      
   RCORE  =    2.300    outmost cutoff radius                                   
   RWIGS  =    2.200; RWIGS  =    1.164    wigner-seitz radius (au A)           
   ENMAX  =  295.446; ENMIN  =  221.585 eV                                      
   ICORE  =        3    local potential                                         
   LCOR   =        T    correct aug charges                                     
   LPAW   =        T    paw PP                                                  
   EAUG   =  586.980                                                            
   DEXC   =    0.000                                                            
   RMAX   =    2.344    core radius for proj-oper                               
   RAUG   =    1.300    factor for augmentation sphere                          
   RDEP   =    2.302    radius for radial grids                                 
   RDEPT  =    1.771    core radius for aug-charge                              
                                                                                
   Atomic configuration                                                         
    9 entries                                                                   
     n  l   j            E        occ.                                          
     1  0  0.50     -8850.2468   2.0000                                         
     2  0  0.50     -1062.3498   2.0000                                         
     2  1  1.50      -916.8226   6.0000                                         
     3  0  0.50      -114.6929   2.0000                                         
     3  1  1.50       -72.1325   6.0000                                         
     3  2  2.50        -5.0394  10.0000                                         
     4  0  0.50        -4.6097   1.0000                                         
     4  1  0.50        -4.0817   0.0000                                         
     4  3  2.50        -1.3606   0.0000                                         
   Description                                                                  
     l       E           TYP  RCUT    TYP  RCUT                                 
     2     -5.0393973     23  2.200                                             
     2     10.8846608     23  2.200                                             
     0     -4.6097109     23  2.200                                             
     0      8.2520465     23  2.200                                             
     1     -2.7211652     23  2.200                                             
     1     21.7055443     23  2.200                                             
     3      2.7211652     23  2.300                                             
  local pseudopotential read in
  partial core-charges read in
  partial kinetic energy density read in
  atomic valenz-charges read in
  non local Contribution for L=           2  read in
    real space projection operators read in
  non local Contribution for L=           2  read in
    real space projection operators read in
  non local Contribution for L=           0  read in
    real space projection operators read in
  non local Contribution for L=           0  read in
    real space projection operators read in
  non local Contribution for L=           1  read in
    real space projection operators read in
  non local Contribution for L=           1  read in
    real space projection operators read in
    PAW grid and wavefunctions read in
 
   number of l-projection  operators is LMAX  =           6
   number of lm-projection operators is LMMAX =          18
 
 POTCAR:    PAW_PBE N 08Apr2002                   
   VRHFIN =N: s2p3                                                              
   LEXCH  = PE                                                                  
   EATOM  =   264.5486 eV,   19.4438 Ry                                         
                                                                                
   TITEL  = PAW_PBE N 08Apr2002                                                 
   LULTRA =        F    use ultrasoft PP ?                                      
   IUNSCR =        1    unscreen: 0-lin 1-nonlin 2-no                           
   RPACOR =    1.200    partial core radius                                     
   POMASS =   14.001; ZVAL   =    5.000    mass and valenz                      
   RCORE  =    1.500    outmost cutoff radius                                   
   RWIGS  =    1.400; RWIGS  =    0.741    wigner-seitz radius (au A)           
   ENMAX  =  400.000; ENMIN  =  300.000 eV                                      
   ICORE  =        2    local potential                                         
   LCOR   =        T    correct aug charges                                     
   LPAW   =        T    paw PP                                                  
   EAUG   =  627.112                                                            
   DEXC   =    0.000                                                            
   RMAX   =    1.529    core radius for proj-oper                               
   RAUG   =    1.300    factor for augmentation sphere                          
   RDEP   =    1.514    radius for radial grids                                 
   RDEPT  =    1.338    core radius for aug-charge                              
                                                                                
   Atomic configuration                                                         
    4 entries                                                                   
     n  l   j            E        occ.                                          
     1  0  0.50      -384.7179   2.0000                                         
     2  0  0.50       -18.5828   2.0000                                         
     2  1  0.50        -7.0898   3.0000                                         
     3  2  1.50        -6.8029   0.0000                                         
   Description                                                                  
     l       E           TYP  RCUT    TYP  RCUT                                 
     0    -18.5828119     23  1.200                                             
     0    -13.5018863     23  1.200                                             
     1     -7.0897853     23  1.500                                             
     1      9.5240782     23  1.500                                             
     2     -6.8029130      7  1.500                                             
  local pseudopotential read in
  partial core-charges read in
  partial kinetic energy density read in
  atomic valenz-charges read in
  non local Contribution for L=           0  read in
    real space projection operators read in
  non local Contribution for L=           0  read in
    real space projection operators read in
  non local Contribution for L=           1  read in
    real space projection operators read in
  non local Contribution for L=           1  read in
    real space projection operators read in
    PAW grid and wavefunctions read in
 
   number of l-projection  operators is LMAX  =           4
   number of lm-projection operators is LMMAX =           8
 
 POTCAR:    PAW_PBE O 08Apr2002                   
   VRHFIN =O: s2p4                                                              
   LEXCH  = PE                                                                  
   EATOM  =   432.3788 eV,   31.7789 Ry                                         
                                                                                
   TITEL  = PAW_PBE O 08Apr2002                                                 
   LULTRA =        F    use ultrasoft PP ?                                      
   IUNSCR =        1    unscreen: 0-lin 1-nonlin 2-no                           
   RPACOR =    1.200    partial core radius                                     
   POMASS =   16.000; ZVAL   =    6.000    mass and valenz                      
   RCORE  =    1.520    outmost cutoff radius                                   
   RWIGS  =    1.550; RWIGS  =    0.820    wigner-seitz radius (au A)           
   ENMAX  =  400.000; ENMIN  =  300.000 eV                                      
   ICORE  =        2    local potential                                         
   LCOR   =        T    correct aug charges                                     
   LPAW   =        T    paw PP                                                  
   EAUG   =  605.392                                                            
   DEXC   =    0.000                                                            
   RMAX   =    1.553    core radius for proj-oper                               
   RAUG   =    1.300    factor for augmentation sphere                          
   RDEP   =    1.550    radius for radial grids                                 
   RDEPT  =    1.329    core radius for aug-charge                              
                                                                                
   Atomic configuration                                                         
    4 entries                                                                   
     n  l   j            E        occ.                                          
     1  0  0.50      -514.6923   2.0000                                         
     2  0  0.50       -23.9615   2.0000                                         
     2  1  0.50        -9.0305   4.0000                                         
     3  2  1.50        -9.5241   0.0000                                         
   Description                                                                  
     l       E           TYP  RCUT    TYP  RCUT                                 
     0    -23.9615318     23  1.200                                             
     0     -9.5240782     23  1.200                                             
     1     -9.0304911     23  1.520                                             
     1      8.1634956     23  1.520                                             
     2     -9.5240782      7  1.500                                             
  local pseudopotential read in
  partial core-charges read in
  partial kinetic energy density read in
  kinetic energy density of atom read in
  atomic valenz-charges read in
  non local Contribution for L=           0  read in
    real space projection operators read in
  non local Contribution for L=           0  read in
    real space projection operators read in
  non local Contribution for L=           1  read in
    real space projection operators read in
  non local Contribution for L=           1  read in
    real space projection operators read in
    PAW grid and wavefunctions read in
 
   number of l-projection  operators is LMAX  =           4
   number of lm-projection operators is LMMAX =           8
 
 POTCAR:    PAW_PBE H 15Jun2001                   
   VRHFIN =H: ultrasoft test                                                    
   LEXCH  = PE                                                                  
   EATOM  =    12.4884 eV,    0.9179 Ry                                         
                                                                                
   TITEL  = PAW_PBE H 15Jun2001                                                 
   LULTRA =        F    use ultrasoft PP ?                                      
   IUNSCR =        0    unscreen: 0-lin 1-nonlin 2-no                           
   RPACOR =    0.000    partial core radius                                     
   POMASS =    1.000; ZVAL   =    1.000    mass and valenz                      
   RCORE  =    1.100    outmost cutoff radius                                   
   RWIGS  =    0.700; RWIGS  =    0.370    wigner-seitz radius (au A)           
   ENMAX  =  250.000; ENMIN  =  200.000 eV                                      
   RCLOC  =    0.701    cutoff for local pot                                    
   LCOR   =        T    correct aug charges                                     
   LPAW   =        T    paw PP                                                  
   EAUG   =  400.000                                                            
   RMAX   =    1.123    core radius for proj-oper                               
   RAUG   =    1.200    factor for augmentation sphere                          
   RDEP   =    1.112    radius for radial grids                                 
   RDEPT  =    0.926    core radius for aug-charge                              
                                                                                
   Atomic configuration                                                         
    2 entries                                                                   
     n  l   j            E        occ.                                          
     1  0  0.50        -6.4927   1.0000                                         
     2  1  0.50        -3.4015   0.0000                                         
   Description                                                                  
     l       E           TYP  RCUT    TYP  RCUT                                 
     0     -6.4927494     23  1.100                                             
     0      6.8029130     23  1.100                                             
     1     -4.0817478     23  1.100                                             
  local pseudopotential read in
  atomic valenz-charges read in
  non local Contribution for L=           0  read in
    real space projection operators read in
  non local Contribution for L=           0  read in
    real space projection operators read in
  non local Contribution for L=           1  read in
    real space projection operators read in
    PAW grid and wavefunctions read in
 
   number of l-projection  operators is LMAX  =           3
   number of lm-projection operators is LMMAX =           5
 
 Optimization of the real space projectors (new method)

 maximal supplied QI-value         = 16.25
 optimisation between [QCUT,QGAM] = [ 10.24, 20.48] = [ 29.35,117.42] Ry 
 Optimized for a Real-space Cutoff    1.55 Angstroem

   l    n(q)    QCUT    max X(q) W(low)/X(q) W(high)/X(q)  e(spline) 
   2      9    10.239     4.610    0.85E-04    0.29E-03    0.14E-06
   2      9    10.239     8.522    0.15E-03    0.50E-03    0.27E-06
   0     10    10.239    51.609    0.45E-04    0.99E-04    0.10E-06
   0     10    10.239    27.747    0.40E-04    0.93E-04    0.97E-07
   1      9    10.239    20.408    0.15E-03    0.78E-05    0.15E-06
   1      9    10.239    13.425    0.13E-03    0.71E-05    0.14E-06
 Optimization of the real space projectors (new method)

 maximal supplied QI-value         = 25.13
 optimisation between [QCUT,QGAM] = [ 10.05, 20.36] = [ 28.30,116.06] Ry 
 Optimized for a Real-space Cutoff    1.70 Angstroem

   l    n(q)    QCUT    max X(q) W(low)/X(q) W(high)/X(q)  e(spline) 
   0     10    10.053    79.467    0.61E-04    0.98E-04    0.61E-06
   0     10    10.053    66.151    0.60E-04    0.98E-04    0.61E-06
   1     10    10.053     8.350    0.17E-03    0.71E-03    0.45E-05
   1     10    10.053     5.531    0.18E-03    0.77E-03    0.49E-05
 Optimization of the real space projectors (new method)

 maximal supplied QI-value         = 24.76
 optimisation between [QCUT,QGAM] = [ 10.15, 20.30] = [ 28.85,115.39] Ry 
 Optimized for a Real-space Cutoff    1.51 Angstroem

   l    n(q)    QCUT    max X(q) W(low)/X(q) W(high)/X(q)  e(spline) 
   0      9    10.150    20.381    0.17E-03    0.18E-03    0.41E-06
   0      9    10.150    15.268    0.18E-03    0.20E-03    0.43E-06
   1      9    10.150     5.964    0.16E-03    0.20E-03    0.36E-06
   1      9    10.150     5.382    0.13E-03    0.16E-03    0.33E-06
 Optimization of the real space projectors (new method)

 maximal supplied QI-value         = 34.20
 optimisation between [QCUT,QGAM] = [  9.92, 20.18] = [ 27.55,114.04] Ry 
 Optimized for a Real-space Cutoff    1.34 Angstroem

   l    n(q)    QCUT    max X(q) W(low)/X(q) W(high)/X(q)  e(spline) 
   0      8     9.919    19.460    0.16E-03    0.20E-03    0.36E-06
   0      8     9.919    12.209    0.16E-03    0.20E-03    0.35E-06
   1      8     9.919     4.655    0.19E-03    0.46E-03    0.40E-06
  PAW_PBE Cu 22Jun2005                  :
 energy of atom  1       EATOM=-1390.9808
 kinetic energy error for atom=    0.0232 (will be added to EATOM!!)
  PAW_PBE N 08Apr2002                   :
 energy of atom  2       EATOM= -264.5486
 kinetic energy error for atom=    0.0736 (will be added to EATOM!!)
  PAW_PBE O 08Apr2002                   :
 energy of atom  3       EATOM= -432.3788
 kinetic energy error for atom=    0.1156 (will be added to EATOM!!)
  PAW_PBE H 15Jun2001                   :
 energy of atom  4       EATOM=  -12.4884
 kinetic energy error for atom=    0.0098 (will be added to EATOM!!)
 
 
 POSCAR: Cu N O H                                
  positions in direct lattice
  velocities in cartesian coordinates
 exchange correlation table for  LEXCH =        8
   RHO(1)=    0.500       N(1)  =     2000
   RHO(2)=  100.500       N(2)  =     4000

 VTST: version 3.1, (03/28/14)

 CHAIN: initializing optimizer
 
 OPT: Using VASP QUASI-newton optimizer
 CHAIN: Read ICHAIN            0
 CHAIN: Running the NEB
 NEB:          SPRING     -5.000000
 NEB:          LCLIMB      T
 NEB:     LTANGENTOLD      F
 NEB:           LDNEB      F
 NEB:        LDNEBORG      F
 NEB:        LNEBCELL      F
 NEB:          EFIRST   -258.919206
 NEB:           ELAST   -259.483362
 
 POSCAR: Cu N O H                                
  positions in direct lattice
  No initial velocities read in
 
 POSCAR: Cu N O H                                
  positions in direct lattice
  No initial velocities read in
 


--------------------------------------------------------------------------------------------------------


 ion  position               nearest neighbor table
   1  0.125  0.125  0.410-  18 2.51  17 2.52  22 2.52  13 2.52   4 2.52   2 2.52   5 2.52  21 2.53

   2  0.125  0.375  0.410-  19 2.52  18 2.52  22 2.52  23 2.52  14 2.52   1 2.52   3 2.52   6 2.52

   3  0.125  0.625  0.410-  19 2.51  20 2.52  23 2.52  15 2.52   4 2.52   2 2.52   7 2.52  24 2.53

   4  0.125  0.875  0.410-  17 2.52  20 2.52  16 2.52   3 2.52   1 2.52   8 2.52  21 2.53  24 2.53

   5  0.375  0.125  0.410-  22 2.51  26 2.52  21 2.52   8 2.52  25 2.52   6 2.52   1 2.52   9 2.52

   6  0.375  0.375  0.410-  22 2.52  23 2.52  27 2.52  26 2.52   5 2.52   7 2.52   2 2.52  10 2.52

   7  0.375  0.625  0.410-  23 2.51  27 2.52  24 2.52   8 2.52  28 2.52   6 2.52   3 2.52  11 2.52

   8  0.375  0.875  0.410-  24 2.52  21 2.52   7 2.52   5 2.52   4 2.52  25 2.52  28 2.52  12 2.52

   9  0.625  0.125  0.410-  26 2.51  30 2.52  29 2.52  13 2.52  12 2.52  10 2.52   5 2.52  25 2.53

  10  0.625  0.375  0.410-  27 2.52  26 2.52  30 2.52  31 2.52  14 2.52   9 2.52  11 2.52   6 2.52

  11  0.625  0.625  0.410-  27 2.51  31 2.52  32 2.52  15 2.52  12 2.52  10 2.52   7 2.52  28 2.53

  12  0.625  0.875  0.410-  32 2.52  29 2.52  16 2.52   9 2.52  11 2.52   8 2.52  25 2.53  28 2.53

  13  0.875  0.125  0.410-  18 2.52  30 2.52  17 2.52  29 2.52   1 2.52   9 2.52  16 2.52  14 2.52

  14  0.875  0.375  0.410-  19 2.52  18 2.52  30 2.52  31 2.52   2 2.52  10 2.52  13 2.52  15 2.52

  15  0.875  0.625  0.410-  19 2.52  31 2.52  20 2.52  32 2.52   3 2.52  11 2.52  16 2.52  14 2.52

  16  0.875  0.875  0.410-  17 2.52  20 2.52  32 2.52  29 2.52   4 2.52  12 2.52  13 2.52  15 2.52

  17  0.000  1.000  0.469-   4 2.52   1 2.52  16 2.52  13 2.52  20 2.52  18 2.52  21 2.52  29 2.53
                            45 2.53  36 2.55  48 2.55  33 2.55
  18  0.000  0.250  0.469-   1 2.51   2 2.52  13 2.52  14 2.52  17 2.52  22 2.52  30 2.53  19 2.53
                            46 2.54  45 2.54  34 2.54  33 2.55
  19  0.000  0.500  0.469-   3 2.51   2 2.52  15 2.52  14 2.52  20 2.52  23 2.52  31 2.53  18 2.53
                            46 2.54  47 2.54  34 2.54  35 2.55
  20  0.000  0.750  0.469-   4 2.52   3 2.52  16 2.52  15 2.52  19 2.52  17 2.52  24 2.52  32 2.53
                            47 2.53  36 2.55  48 2.55  35 2.55
  21  0.251  0.000  0.470-  25 2.52  22 2.52   5 2.52   8 2.52  24 2.52  17 2.52   1 2.53   4 2.53
                            40 2.54  33 2.54  36 2.55  37 2.58
  22  0.250  0.250  0.469-   5 2.51   1 2.52   6 2.52  21 2.52   2 2.52  26 2.52  18 2.52  23 2.53
                            34 2.54  38 2.54  33 2.54  37 2.56
  23  0.250  0.500  0.469-   7 2.51   3 2.52   6 2.52  24 2.52   2 2.52  27 2.52  19 2.52  22 2.53
                            34 2.54  38 2.54  35 2.54  39 2.56
  24  0.251  0.750  0.470-  28 2.52  23 2.52   7 2.52   8 2.52  21 2.52  20 2.52   3 2.53   4 2.53
                            40 2.54  35 2.54  36 2.55  39 2.58
  25  0.500  0.000  0.470-  21 2.52  26 2.52   5 2.52  29 2.52   8 2.52  28 2.52   9 2.53  12 2.53
                            40 2.54  44 2.55  41 2.55  37 2.57
  26  0.500  0.250  0.469-   9 2.51   5 2.52  10 2.52  25 2.52  30 2.52   6 2.52  22 2.52  38 2.53
                            27 2.53  41 2.55  42 2.55  37 2.55
  27  0.500  0.500  0.469-  11 2.51  10 2.52   7 2.52  28 2.52  31 2.52   6 2.52  23 2.52  38 2.53
                            26 2.53  43 2.55  42 2.55  39 2.55
  28  0.500  0.750  0.470-  24 2.52  27 2.52   7 2.52  32 2.52   8 2.52  25 2.52  11 2.53  12 2.53
                            40 2.54  44 2.55  43 2.55  39 2.57
  29  0.750  1.000  0.469-  12 2.52  16 2.52  32 2.52   9 2.52  13 2.52  25 2.52  30 2.52  17 2.53
                            45 2.54  44 2.55  48 2.55  41 2.56
  30  0.750  0.250  0.469-  14 2.52  13 2.52  26 2.52  10 2.52   9 2.52  31 2.52  29 2.52  18 2.53
                            46 2.54  45 2.55  41 2.55  42 2.55
  31  0.750  0.500  0.469-  14 2.52  15 2.52  27 2.52  10 2.52  11 2.52  30 2.52  32 2.52  19 2.53
                            46 2.54  47 2.55  43 2.55  42 2.55
  32  0.750  0.750  0.469-  12 2.52  16 2.52  29 2.52  11 2.52  15 2.52  28 2.52  31 2.52  20 2.53
                            47 2.54  44 2.55  48 2.55  43 2.56
  33  0.126  0.125  0.530-  54 2.50  53 2.52  50 2.52  34 2.52  49 2.52  37 2.52  36 2.52  45 2.53
                            21 2.54  22 2.54  18 2.55  17 2.55
  34  0.126  0.375  0.529-  54 2.52  55 2.52  35 2.52  33 2.52  38 2.53  46 2.53  50 2.53  51 2.53
                            23 2.54  22 2.54  18 2.54  19 2.54
  35  0.126  0.625  0.530-  55 2.50  56 2.52  51 2.52  34 2.52  52 2.52  39 2.52  36 2.53  47 2.53
                            24 2.54  23 2.54  19 2.55  20 2.55
  36  0.125  0.875  0.530-  52 2.52  53 2.52  49 2.52  56 2.52  40 2.52  48 2.52  33 2.52  35 2.53
                            21 2.55  24 2.55  20 2.55  17 2.55
  37  0.376  0.128  0.531-  38 2.50  41 2.51  57 2.52  54 2.52  53 2.52  33 2.52  40 2.55  26 2.55
                            58 2.55  22 2.56  25 2.57  21 2.58
  38  0.376  0.375  0.529-  39 2.50  37 2.50  42 2.50  34 2.53  26 2.53  27 2.53  23 2.54  22 2.54
                            54 2.58  55 2.58  58 2.64  59 2.64
  39  0.376  0.622  0.531-  38 2.50  43 2.51  60 2.52  55 2.52  56 2.52  35 2.52  40 2.55  27 2.55
                            59 2.55  23 2.56  28 2.57  24 2.58
  40  0.375  0.875  0.530-  57 2.52  60 2.52  56 2.52  53 2.52  44 2.52  36 2.52  28 2.54  24 2.54
                            21 2.54  25 2.54  39 2.55  37 2.55
  41  0.625  0.126  0.530-  37 2.51  58 2.51  42 2.51  62 2.52  61 2.52  57 2.52  44 2.53  45 2.53
                            26 2.55  30 2.55  25 2.55  29 2.56
  42  0.624  0.375  0.530-  38 2.50  43 2.51  41 2.51  62 2.53  63 2.53  46 2.54  26 2.55  27 2.55
                            30 2.55  31 2.55  58 2.56  59 2.56
  43  0.625  0.624  0.530-  39 2.51  59 2.51  42 2.51  63 2.51  64 2.52  60 2.52  44 2.53  47 2.53
                            27 2.55  31 2.55  28 2.55  32 2.56
  44  0.625  0.875  0.530-  57 2.52  60 2.52  64 2.52  61 2.52  40 2.52  48 2.52  41 2.53  43 2.53
                            32 2.55  29 2.55  28 2.55  25 2.55
  45  0.876  0.124  0.530-  62 2.50  48 2.52  50 2.52  49 2.52  33 2.53  61 2.53  46 2.53  41 2.53
                            17 2.53  29 2.54  18 2.54  30 2.55
  46  0.876  0.375  0.529-  63 2.50  62 2.50  50 2.52  51 2.52  34 2.53  47 2.53  45 2.53  18 2.54
                            19 2.54  31 2.54  30 2.54  42 2.54
  47  0.876  0.626  0.530-  63 2.50  48 2.52  51 2.52  52 2.52  35 2.53  64 2.53  46 2.53  43 2.53
                            20 2.53  32 2.54  19 2.54  31 2.55
  48  0.875  0.875  0.530-  45 2.52  47 2.52  64 2.52  61 2.52  49 2.52  52 2.52  44 2.52  36 2.52
                            29 2.55  32 2.55  20 2.55  17 2.55
  49  0.000  0.000  0.589-  36 2.52  48 2.52  53 2.52  45 2.52  50 2.52  33 2.52  52 2.53  61 2.53

  50  1.000  0.250  0.589-  62 2.48  54 2.49  33 2.52  46 2.52  45 2.52  49 2.52  51 2.52  34 2.53

  51  1.000  0.500  0.589-  63 2.48  55 2.49  35 2.52  46 2.52  47 2.52  52 2.52  50 2.52  34 2.53

  52  0.000  0.750  0.589-  36 2.52  48 2.52  56 2.52  47 2.52  51 2.52  35 2.52  49 2.53  64 2.53

  53  0.250  1.000  0.589-  33 2.52  54 2.52  36 2.52  40 2.52  49 2.52  56 2.52  37 2.52  57 2.52

  54  0.246  0.249  0.590-  67 1.76  50 2.49  33 2.50  53 2.52  37 2.52  34 2.52  55 2.54  38 2.58
                            58 2.63
  55  0.246  0.501  0.590-  67 1.76  51 2.49  35 2.50  56 2.52  39 2.52  34 2.52  54 2.54  38 2.58
                            59 2.63
  56  0.250  0.750  0.589-  35 2.52  55 2.52  36 2.52  40 2.52  52 2.52  53 2.52  39 2.52  60 2.52

  57  0.500  0.999  0.589-  58 2.49  60 2.51  37 2.52  40 2.52  44 2.52  53 2.52  61 2.52  41 2.52

  58  0.506  0.246  0.592-  65 2.03  57 2.49  62 2.50  41 2.51  37 2.55  42 2.56  59 2.61  54 2.63
                            38 2.64
  59  0.506  0.504  0.592-  65 2.03  60 2.49  63 2.50  43 2.51  39 2.55  42 2.56  58 2.61  55 2.63
                            38 2.64
  60  0.500  0.751  0.589-  59 2.49  57 2.51  39 2.52  40 2.52  44 2.52  56 2.52  64 2.52  43 2.52

  61  0.750  0.000  0.589-  48 2.52  41 2.52  62 2.52  44 2.52  57 2.52  64 2.53  45 2.53  49 2.53

  62  0.754  0.250  0.589-  50 2.48  45 2.50  58 2.50  46 2.50  41 2.52  61 2.52  63 2.53  42 2.53

  63  0.754  0.500  0.589-  51 2.48  47 2.50  59 2.50  46 2.50  43 2.51  64 2.52  62 2.53  42 2.53

  64  0.750  0.750  0.589-  48 2.52  43 2.52  63 2.52  44 2.52  60 2.52  61 2.53  47 2.53  52 2.53

  65  0.444  0.375  0.639-  66 1.22  58 2.03  59 2.03
  66  0.462  0.375  0.680-  65 1.22
  67  0.305  0.375  0.625-  54 1.76  55 1.76
 
  LATTYP: Found a simple tetragonal cell.
 ALAT       =    10.0912000000
 C/A-ratio  =     2.9728872681
  
  Lattice vectors:
  
 A1 = (  10.0912000000,   0.0000000000,   0.0000000000)
 A2 = (   0.0000000000,  10.0912000000,   0.0000000000)
 A3 = (   0.0000000000,   0.0000000000,  30.0000000000)


Analysis of symmetry for initial positions (statically):
=====================================================================
 Subroutine PRICEL returns:
 Original cell was already a primitive cell.
 

 Routine SETGRP: Setting up the symmetry group for a 
 simple tetragonal supercell.


 Subroutine GETGRP returns: Found  1 space group operations
 (whereof  1 operations were pure point group operations)
 out of a pool of 16 trial point group operations.


The static configuration has the point symmetry C_1 .


Analysis of symmetry for dynamics (positions and initial velocities):
=====================================================================
 Subroutine PRICEL returns:
 Original cell was already a primitive cell.
 

 Routine SETGRP: Setting up the symmetry group for a 
 simple tetragonal supercell.


 Subroutine GETGRP returns: Found  1 space group operations
 (whereof  1 operations were pure point group operations)
 out of a pool of 16 trial point group operations.


The dynamic configuration has the point symmetry C_1 .


Analysis of constrained symmetry for selective dynamics:
=====================================================================
 Subroutine PRICEL returns:
 Original cell was already a primitive cell.
 

 Routine SETGRP: Setting up the symmetry group for a 
 simple tetragonal supercell.


 Subroutine GETGRP returns: Found  1 space group operations
 (whereof  1 operations were pure point group operations)
 out of a pool of 16 trial point group operations.


The constrained configuration has the point symmetry C_1 .


Analysis of structural, dynamic, and magnetic symmetry:
=====================================================================
 Subroutine PRICEL returns:
 Original cell was already a primitive cell.
 

 Routine SETGRP: Setting up the symmetry group for a 
 simple tetragonal supercell.


 Subroutine GETGRP returns: Found  1 space group operations
 (whereof  1 operations were pure point group operations)
 out of a pool of 16 trial point group operations.


The magnetic configuration has the point symmetry C_1 .


 Subroutine INISYM returns: Found  1 space group operations
 (whereof  1 operations are pure point group operations),
 and found     1 'primitive' translations

 
 
 KPOINTS: K-Point Grid                            

Automatic generation of k-mesh.
Space group operators:
 irot       det(A)        alpha          n_x          n_y          n_z        tau_x        tau_y        tau_z
    1     1.000000     0.000000     1.000000     0.000000     0.000000     0.000000     0.000000     0.000000
 
 Subroutine IBZKPT returns following result:
 ===========================================
 
 Found      8 irreducible k-points:
 
 Following reciprocal coordinates:
            Coordinates               Weight
  0.125000  0.125000  0.000000      2.000000
  0.375000  0.125000  0.000000      2.000000
 -0.375000  0.125000  0.000000      2.000000
 -0.125000  0.125000  0.000000      2.000000
  0.125000  0.375000  0.000000      2.000000
  0.375000  0.375000  0.000000      2.000000
 -0.375000  0.375000  0.000000      2.000000
 -0.125000  0.375000  0.000000      2.000000
 
 Following cartesian coordinates:
            Coordinates               Weight
  0.012387  0.012387  0.000000      2.000000
  0.037161  0.012387  0.000000      2.000000
 -0.037161  0.012387  0.000000      2.000000
 -0.012387  0.012387  0.000000      2.000000
  0.012387  0.037161  0.000000      2.000000
  0.037161  0.037161  0.000000      2.000000
 -0.037161  0.037161  0.000000      2.000000
 -0.012387  0.037161  0.000000      2.000000
 


--------------------------------------------------------------------------------------------------------




 Dimension of arrays:
   k-points           NKPTS =      8   k-points in BZ     NKDIM =      8   number of bands    NBANDS=    463
   number of dos      NEDOS =   1200   number of ions     NIONS =     67
   non local maximal  LDIM  =      6   non local SUM 2l+1 LMDIM =     18
   total plane-waves  NPLWV = 960400
   max r-space proj   IRMAX =   6495   max aug-charges    IRDMAX=   9304
   dimension x,y,z NGX =    70 NGY =   70 NGZ =  196
   dimension x,y,z NGXF=   140 NGYF=  140 NGZF=  392
   support grid    NGXF=   140 NGYF=  140 NGZF=  392
   ions per type =              64   1   1   1
   NGX,Y,Z   is equivalent  to a cutoff of  11.53, 11.53, 10.86 a.u.
   NGXF,Y,Z  is equivalent  to a cutoff of  23.06, 23.06, 21.72 a.u.

 SYSTEM =  Pd_111_surface                          
 POSCAR =  Cu N O H                                

 Startparameter for this run:
   NWRITE =      2    write-flag & timer
   PREC   = accura    normal or accurate (medium, high low for compatibility)
   ISTART =      0    job   : 0-new  1-cont  2-samecut
   ICHARG =      2    charge: 1-file 2-atom 10-const
   ISPIN  =      2    spin polarized calculation?
   LNONCOLLINEAR =      F non collinear calculations
   LSORBIT =      F    spin-orbit coupling
   INIWAV =      1    electr: 0-lowe 1-rand  2-diag
   LASPH  =      F    aspherical Exc in radial PAW
   METAGGA=      F    non-selfconsistent MetaGGA calc.

 Electronic Relaxation 1
   ENCUT  =  400.0 eV  29.40 Ry    5.42 a.u.  16.46 16.46 48.92*2*pi/ulx,y,z
   ENINI  =  400.0     initial cutoff
   ENAUG  =  627.1 eV  augmentation charge cutoff
   NELM   =    100;   NELMIN=  2; NELMDL= -5     # of ELM steps 
   EDIFF  = 0.1E-04   stopping-criterion for ELM
   LREAL  =      T    real-space projection
   NLSPLINE    = F    spline interpolate recip. space projectors
   LCOMPAT=      F    compatible to vasp.4.4
   GGA_COMPAT  = T    GGA compatible to vasp.4.4-vasp.4.6
   LMAXPAW     = -100 max onsite density
   LMAXMIX     =    2 max onsite mixed and CHGCAR
   VOSKOWN=      0    Vosko Wilk Nusair interpolation
   ROPT   =   -0.00025  -0.00025  -0.00025  -0.00025
 Ionic relaxation
   EDIFFG = -.5E-01   stopping-criterion for IOM
   NSW    =   1000    number of steps for IOM
   NBLOCK =      1;   KBLOCK =   1000    inner block; outer block 
   IBRION =      1    ionic relax: 0-MD 1-quasi-New 2-CG
   NFREE  =      0    steps in history (QN), initial steepest desc. (CG)
   ISIF   =      2    stress and relaxation
   IWAVPR =     11    prediction:  0-non 1-charg 2-wave 3-comb
   ISYM   =      2    0-nonsym 1-usesym 2-fastsym
   LCORR  =      T    Harris-Foulkes like correction to forces

   POTIM  = 0.4000    time-step for ionic-motion
   TEIN   =    0.0    initial temperature
   TEBEG  =    0.0;   TEEND  =   0.0 temperature during run
   SMASS  =  -3.00    Nose mass-parameter (am)
   estimated Nose-frequenzy (Omega)   =  0.10E-29 period in steps =****** mass=  -0.233E-26a.u.
   SCALEE = 1.0000    scale energy and forces
   NPACO  =    256;   APACO  = 16.0  distance and # of slots for P.C.
   PSTRESS=    0.0 pullay stress

  Mass of Ions in am
   POMASS =  63.55 14.00 16.00  1.00
  Ionic Valenz
   ZVAL   =  11.00  5.00  6.00  1.00
  Atomic Wigner-Seitz radii
   RWIGS  =  -1.00 -1.00 -1.00 -1.00
  virtual crystal weights 
   VCA    =   1.00  1.00  1.00  1.00
   NELECT =     716.0000    total number of electrons
   NUPDOWN=      -1.0000    fix difference up-down

 DOS related values:
   EMIN   =  10.00;   EMAX   =-10.00  energy-range for DOS
   EFERMI =   0.00
   ISMEAR =     1;   SIGMA  =   0.20  broadening in eV -4-tet -1-fermi 0-gaus

 Electronic relaxation 2 (details)
   IALGO  =     68    algorithm
   LDIAG  =      T    sub-space diagonalisation (order eigenvalues)
   LSUBROT=      F    optimize rotation matrix (better conditioning)
   TURBO    =      0    0=normal 1=particle mesh
   IRESTART =      0    0=no restart 2=restart with 2 vectors
   NREBOOT  =      0    no. of reboots
   NMIN     =      0    reboot dimension
   EREF     =   0.00    reference energy to select bands
   IMIX   =      4    mixing-type and parameters
     AMIX     =   0.40;   BMIX     =  1.00
     AMIX_MAG =   1.60;   BMIX_MAG =  1.00
     AMIN     =   0.10
     WC   =   100.;   INIMIX=   1;  MIXPRE=   1;  MAXMIX= -45

 Intra band minimization:
   WEIMIN = 0.0010     energy-eigenvalue tresh-hold
   EBREAK =  0.54E-08  absolut break condition
   DEPER  =   0.30     relativ break condition  

   TIME   =   0.40     timestep for ELM

  volume/ion in A,a.u.               =      45.60       307.70
  Fermi-wavevector in a.u.,A,eV,Ry     =   1.009354  1.907403 13.861557  1.018796
  Thomas-Fermi vector in A             =   2.142277
 
 Write flags
   LWAVE        =      F    write WAVECAR
   LDOWNSAMPLE  =      F    k-point downsampling of WAVECAR
   LCHARG       =      F    write CHGCAR
   LVTOT        =      F    write LOCPOT, total local potential
   LVHAR        =      F    write LOCPOT, Hartree potential only
   LELF         =      F    write electronic localiz. function (ELF)
   LORBIT       =     11    0 simple, 1 ext, 2 COOP (PROOUT), +10 PAW based schemes


 Dipole corrections
   LMONO  =      F    monopole corrections only (constant potential shift)
   LDIPOL =      T    correct potential (dipole corrections)
   IDIPOL =      3    1-x, 2-y, 3-z, 4-all directions 
   EPSILON=  1.0000000 bulk dielectric constant

 Exchange correlation treatment:
   GGA     =    --    GGA type
   LEXCH   =     8    internal setting for exchange type
   VOSKOWN=      0    Vosko Wilk Nusair interpolation
   LHFCALC =     F    Hartree Fock is set to
   LHFONE  =     F    Hartree Fock one center treatment
   AEXX    =    0.0000 exact exchange contribution

 Linear response parameters
   LEPSILON=     F    determine dielectric tensor
   LRPA    =     F    only Hartree local field effects (RPA)
   LNABLA  =     F    use nabla operator in PAW spheres
   LVEL    =     F    velocity operator in full k-point grid
   LINTERFAST=   F  fast interpolation
   KINTER  =     0    interpolate to denser k-point grid
   CSHIFT  =0.1000    complex shift for real part using Kramers Kronig
   OMEGAMAX=  -1.0    maximum frequency
   DEG_THRESHOLD= 0.2000000E-02 threshold for treating states as degnerate
   RTIME   =   -0.100 relaxation time in fs
  (WPLASMAI=    0.000 imaginary part of plasma frequency in eV, 0.658/RTIME)
   DFIELD  = 0.0000000 0.0000000 0.0000000 field for delta impulse in time
 
 Orbital magnetization related:
   ORBITALMAG=     F  switch on orbital magnetization
   LCHIMAG   =     F  perturbation theory with respect to B field
   DQ        =  0.001000  dq finite difference perturbation B field
   LLRAUG    =     F  two centre corrections for induced B field



--------------------------------------------------------------------------------------------------------


 quasi-Newton-method for relaxation of ions
   using selective dynamics as specified on POSCAR
 charge density and potential will be updated during run
 spin polarized calculation
 RMM-DIIS sequential band-by-band and
  variant of blocked Davidson during initial phase
 perform sub-space diagonalisation
    before iterative eigenvector-optimisation
 modified Broyden-mixing scheme, WC =      100.0
 initial mixing is a Kerker type mixing with AMIX =  0.4000 and BMIX =      1.0000
 Hartree-type preconditioning will be used
 using additional bands          105
 real space projection scheme for non local part
 use partial core corrections
 calculate Harris-corrections to forces 
   (improved forces if not selfconsistent)
 use gradient corrections 
 use of overlap-Matrix (Vanderbilt PP)
 Methfessel and Paxton  Order N= 1 SIGMA  =   0.20


--------------------------------------------------------------------------------------------------------


  energy-cutoff  :      400.00
  volume of cell :     3054.97
      direct lattice vectors                 reciprocal lattice vectors
    10.091200000  0.000000000  0.000000000     0.099096242  0.000000000  0.000000000
     0.000000000 10.091200000  0.000000000     0.000000000  0.099096242  0.000000000
     0.000000000  0.000000000 30.000000000     0.000000000  0.000000000  0.033333333

  length of vectors
    10.091200000 10.091200000 30.000000000     0.099096242  0.099096242  0.033333333


 
 k-points in units of 2pi/SCALE and weight: K-Point Grid                            
   0.01238703  0.01238703  0.00000000       0.125
   0.03716109  0.01238703  0.00000000       0.125
  -0.03716109  0.01238703  0.00000000       0.125
  -0.01238703  0.01238703  0.00000000       0.125
   0.01238703  0.03716109  0.00000000       0.125
   0.03716109  0.03716109  0.00000000       0.125
  -0.03716109  0.03716109  0.00000000       0.125
  -0.01238703  0.03716109  0.00000000       0.125
 
 k-points in reciprocal lattice and weights: K-Point Grid                            
   0.12500000  0.12500000  0.00000000       0.125
   0.37500000  0.12500000  0.00000000       0.125
  -0.37500000  0.12500000  0.00000000       0.125
  -0.12500000  0.12500000  0.00000000       0.125
   0.12500000  0.37500000  0.00000000       0.125
   0.37500000  0.37500000  0.00000000       0.125
  -0.37500000  0.37500000  0.00000000       0.125
  -0.12500000  0.37500000  0.00000000       0.125
 
 position of ions in fractional coordinates (direct lattice) 
   0.12488435  0.12497811  0.41009993
   0.12488208  0.37499938  0.41009633
   0.12488462  0.62502170  0.41009941
   0.12488470  0.87499978  0.41009802
   0.37497113  0.12494749  0.41001105
   0.37497480  0.37499922  0.40999628
   0.37497123  0.62505228  0.41001043
   0.37496823  0.87499984  0.41002341
   0.62515210  0.12496382  0.41005051
   0.62516200  0.37499924  0.41004305
   0.62515232  0.62503624  0.41004972
   0.62514353  0.87500016  0.41005485
   0.87506992  0.12499511  0.41013956
   0.87507177  0.37499932  0.41014227
   0.87507027  0.62500494  0.41013886
   0.87506914  0.87500010  0.41012971
   0.00039097  0.99994000  0.46936184
   0.00027605  0.24982694  0.46927679
   0.00028284  0.50017139  0.46927294
   0.00039138  0.75005305  0.46936488
   0.25055257  0.00000823  0.46954820
   0.25045379  0.24965459  0.46923558
   0.25045235  0.50032830  0.46924634
   0.25055996  0.74997642  0.46954435
   0.49979181  0.00006188  0.46956323
   0.50041300  0.24954865  0.46919947
   0.50041414  0.50043867  0.46919463
   0.49978902  0.74992154  0.46956480
   0.74983325  0.99983274  0.46941759
   0.74998243  0.25001498  0.46935197
   0.74998471  0.49998013  0.46935663
   0.74983071  0.75016180  0.46941383
   0.12600402  0.12520451  0.52998839
   0.12622166  0.37499392  0.52941233
   0.12601868  0.62476745  0.52999254
   0.12520610  0.87499129  0.53000720
   0.37614893  0.12757274  0.53079227
   0.37648580  0.37498671  0.52901493
   0.37615701  0.62239774  0.53079711
   0.37516464  0.87498312  0.52999279
   0.62478251  0.12594760  0.53026119
   0.62415548  0.37498428  0.53002481
   0.62479047  0.62401593  0.53026182
   0.62505562  0.87498249  0.53002107
   0.87574834  0.12433916  0.52962310
   0.87588746  0.37499918  0.52941971
   0.87575614  0.62564950  0.52962407
   0.87506447  0.87499656  0.53012347
   0.00042941  0.00018991  0.58926726
   0.99984055  0.25004592  0.58903299
   0.99984625  0.49994749  0.58903435
   0.00044506  0.74980324  0.58926505
   0.25011568  0.99989950  0.58929959
   0.24630167  0.24926850  0.58971650
   0.24632348  0.50069867  0.58973107
   0.25012700  0.75007357  0.58930191
   0.50002157  0.99915210  0.58943757
   0.50644081  0.24580803  0.59190917
   0.50644786  0.50413271  0.59191752
   0.50003149  0.75078882  0.58944160
   0.74992833  0.00013900  0.58929758
   0.75402844  0.24970942  0.58861876
   0.75402339  0.50028439  0.58861866
   0.74993814  0.74985787  0.58929928
   0.44449894  0.37488002  0.63943590
   0.46219079  0.37475505  0.67969484
   0.30493969  0.37495570  0.62519886
 
 position of ions in cartesian coordinates  (Angst):
   1.26023293  1.26117912 12.30299787
   1.26021006  3.78419379 12.30288988
   1.26023563  6.30721902 12.30298239
   1.26023649  8.82979777 12.30294052
   3.78390869  1.26087014 12.30033135
   3.78394575  3.78419214 12.29988830
   3.78390965  6.30752757 12.30031281
   3.78387941  8.82979838 12.30070230
   6.30853484  1.26103492 12.30151544
   6.30863479  3.78419228 12.30129143
   6.30853709  6.30736573 12.30149147
   6.30844835  8.82980159 12.30164554
   8.83050559  1.26135067 12.30418691
   8.83052427  3.78419309 12.30426812
   8.83050907  6.30704983 12.30416589
   8.83049766  8.82980097 12.30389142
   0.00394531 10.09059449 14.08085527
   0.00278564  2.52105364 14.07830375
   0.00285419  5.04732951 14.07818828
   0.00394945  7.56893536 14.08094632
   2.52837607  0.00008305 14.08644603
   2.52737932  2.51931439 14.07706749
   2.52736477  5.04891289 14.07739017
   2.52845063  7.56816207 14.08633052
   5.04349913  0.00062443 14.08689689
   5.04976771  2.51824533 14.07598421
   5.04977920  5.05002673 14.07583897
   5.04347097  7.56760826 14.08694409
   7.56671731 10.08951220 14.08252768
   7.56822273  2.52295116 14.08055895
   7.56824572  5.04539947 14.08069883
   7.56669170  7.57003277 14.08241483
   1.27153177  1.26346371 15.89965184
   1.27372806  3.78413869 15.88237000
   1.27167973  6.30465326 15.89977626
   1.26347980  8.82971211 15.90021586
   3.79579411  1.28736201 15.92376807
   3.79919352  3.78406590 15.87044801
   3.79587558  6.28074005 15.92391317
   3.78586139  8.82962970 15.89978382
   6.30480524  1.27096244 15.90783583
   6.29847781  3.78404141 15.90074415
   6.30488557  6.29706954 15.90785453
   6.30756131  8.82962328 15.90063211
   8.83735167  1.25473137 15.88869300
   8.83875555  3.78419177 15.88259142
   8.83743039  6.31355426 15.88872198
   8.83045059  8.82976524 15.90370408
   0.00433331  0.00191641 17.67801782
  10.08959096  2.52326336 17.67098975
  10.08964847  5.04507015 17.67103056
   0.00449123  7.56641441 17.67795150
   2.52396737 10.09018579 17.67898760
   2.48547943  2.51541831 17.69149502
   2.48569949  5.05265045 17.69193221
   2.52408154  7.56914241 17.67905738
   5.04581771 10.08264364 17.68312706
   5.11059549  2.48049797 17.75727522
   5.11066660  5.08730404 17.75752572
   5.04591781  7.57636010 17.68324803
   7.56767675  0.00140272 17.67892750
   7.60905177  2.51986772 17.65856293
   7.60900082  5.04846981 17.65855968
   7.56777575  7.56696573 17.67897826
   4.48552770  3.78298922 19.18307692
   4.66405970  3.78172813 20.39084523
   3.07720743  3.78375296 18.75596571
 


--------------------------------------------------------------------------------------------------------


 k-point  1 :   0.1250 0.1250 0.0000  plane waves:   55537
 k-point  2 :   0.3750 0.1250 0.0000  plane waves:   55487
 k-point  3 :  -0.3750 0.1250 0.0000  plane waves:   55487
 k-point  4 :  -0.1250 0.1250 0.0000  plane waves:   55537
 k-point  5 :   0.1250 0.3750 0.0000  plane waves:   55487
 k-point  6 :   0.3750 0.3750 0.0000  plane waves:   55438
 k-point  7 :  -0.3750 0.3750 0.0000  plane waves:   55438
 k-point  8 :  -0.1250 0.3750 0.0000  plane waves:   55487

 maximum and minimum number of plane-waves per node :      4665     4602

 maximum number of plane-waves:     55537
 maximum index in each direction: 
   IXMAX=   16   IYMAX=   16   IZMAX=   48
   IXMIN=  -16   IYMIN=  -16   IZMIN=  -48


 real space projection operators:
  total allocation   :      43934.30 KBytes
  max/ min on nodes  :       3790.63       3140.27


 parallel 3D FFT for wavefunctions:
    minimum data exchange during FFTs selected (reduces bandwidth)
 parallel 3D FFT for charge:
    minimum data exchange during FFTs selected (reduces bandwidth)


 total amount of memory used by VASP MPI-rank0   698805. kBytes
=======================================================================

   base      :      30000. kBytes
   nonlr-proj:      12036. kBytes
   fftplans  :      24435. kBytes
   grid      :      70089. kBytes
   one-center:        186. kBytes
   wavefun   :     562059. kBytes
 
     INWAV:  cpu time    0.0000: real time    0.0000
 Broyden mixing: mesh for mixing (old mesh)
   NGX = 33   NGY = 33   NGZ = 97
  (NGX  =140   NGY  =140   NGZ  =392)
  gives a total of 105633 points

 initial charge density was supplied:
 charge density of overlapping atoms calculated
 number of electron     716.0000000 magnetization      67.0000000
 keeping initial charge density in first step


--------------------------------------------------------------------------------------------------------


 Maximum index for non-local projection operator          586
 Maximum index for augmentation-charges          906 (set IRDMAX)


--------------------------------------------------------------------------------------------------------


 First call to EWALD:  gamma=   0.122
 Maximum number of real-space cells 4x 4x 2
 Maximum number of reciprocal cells 2x 2x 5

    FEWALD:  cpu time    0.0088: real time    0.0044


--------------------------------------- Iteration      1(   1)  ---------------------------------------


    POTLOK:  cpu time    1.0135: real time   12.5281
    SETDIJ:  cpu time    0.0682: real time    0.0410
     EDDAV:  cpu time  296.3820: real time  148.6031
       DOS:  cpu time    0.1009: real time    0.0506
    --------------------------------------------
      LOOP:  cpu time  297.5647: real time  161.2228

 eigenvalue-minimisations  : 14880
 total energy-change (2. order) : 0.6207920E+04  (-0.2507201E+05)
 number of electron     716.0000000 magnetization      67.0000000
 augmentation part      716.0000000 magnetization      67.0000000

 DIPCOR: dipole corrections for dipol
 direction  3 min pos     1,
 dipolmoment           0.000000      0.000000     -0.000063 electrons x Angstroem
 Tr[quadrupol]    -12687.376952

 energy correction for charged system         0.000000 eV
 dipol+quadrupol energy correction           -0.000000 eV
 added-field ion interaction          0.000194 eV  (added to PSCEN)


 Free energy of the ion-electron system (eV)
  ---------------------------------------------------
  alpha Z        PSCENC =      1008.30323226
  Ewald energy   TEWEN  =    586879.03736171
  -Hartree energ DENC   =   -671381.89603857
  -exchange      EXHF   =         0.00000000
  -V(xc)+E(xc)   XCENC  =      2974.12765328
  PAW double counting   =     79151.23636442   -85926.92333651
  entropy T*S    EENTRO =         0.02146438
  eigenvalues    EBANDS =      3773.50757919
  atomic energy  EATOM  =     89730.50580390
  Solvation  Ediel_sol  =         0.00000000
  ---------------------------------------------------
  free energy    TOTEN  =      6207.92008405 eV

  energy without entropy =     6207.89861967  energy(sigma->0) =     6207.91292925


--------------------------------------------------------------------------------------------------------




--------------------------------------- Iteration      1(   2)  ---------------------------------------


     EDDAV:  cpu time  296.8079: real time  148.8367
       DOS:  cpu time    0.1200: real time    0.0601
    --------------------------------------------
      LOOP:  cpu time  296.9279: real time  148.8968

 eigenvalue-minimisations  : 14816
 total energy-change (2. order) :-0.5731653E+04  (-0.5467069E+04)
 number of electron     716.0000000 magnetization      67.0000000
 augmentation part      716.0000000 magnetization      67.0000000

 DIPCOR: dipole corrections for dipol
 direction  3 min pos     1,
 dipolmoment           0.000000      0.000000     -0.000063 electrons x Angstroem
 Tr[quadrupol]    -12687.376952

 energy correction for charged system         0.000000 eV
 dipol+quadrupol energy correction           -0.000000 eV
 added-field ion interaction          0.000194 eV  (added to PSCEN)


 Free energy of the ion-electron system (eV)
  ---------------------------------------------------
  alpha Z        PSCENC =      1008.30323226
  Ewald energy   TEWEN  =    586879.03736171
  -Hartree energ DENC   =   -671381.89603857
  -exchange      EXHF   =         0.00000000
  -V(xc)+E(xc)   XCENC  =      2974.12765328
  PAW double counting   =     79151.23636442   -85926.92333651
  entropy T*S    EENTRO =        -0.00470405
  eigenvalues    EBANDS =     -1958.11967159
  atomic energy  EATOM  =     89730.50580390
  Solvation  Ediel_sol  =         0.00000000
  ---------------------------------------------------
  free energy    TOTEN  =       476.26666484 eV

  energy without entropy =      476.27136889  energy(sigma->0) =      476.26823286


--------------------------------------------------------------------------------------------------------




--------------------------------------- Iteration      1(   3)  ---------------------------------------


     EDDAV:  cpu time  309.5244: real time  155.1868
       DOS:  cpu time    0.1229: real time    0.0616
    --------------------------------------------
      LOOP:  cpu time  309.6473: real time  155.2483

 eigenvalue-minimisations  : 15778
 total energy-change (2. order) :-0.6866845E+03  (-0.6320368E+03)
 number of electron     716.0000000 magnetization      67.0000000
 augmentation part      716.0000000 magnetization      67.0000000

 DIPCOR: dipole corrections for dipol
 direction  3 min pos     1,
 dipolmoment           0.000000      0.000000     -0.000063 electrons x Angstroem
 Tr[quadrupol]    -12687.376952

 energy correction for charged system         0.000000 eV
 dipol+quadrupol energy correction           -0.000000 eV
 added-field ion interaction          0.000194 eV  (added to PSCEN)


 Free energy of the ion-electron system (eV)
  ---------------------------------------------------
  alpha Z        PSCENC =      1008.30323226
  Ewald energy   TEWEN  =    586879.03736171
  -Hartree energ DENC   =   -671381.89603857
  -exchange      EXHF   =         0.00000000
  -V(xc)+E(xc)   XCENC  =      2974.12765328
  PAW double counting   =     79151.23636442   -85926.92333651
  entropy T*S    EENTRO =         0.00243646
  eigenvalues    EBANDS =     -2644.81135259
  atomic energy  EATOM  =     89730.50580390
  Solvation  Ediel_sol  =         0.00000000
  ---------------------------------------------------
  free energy    TOTEN  =      -210.41787564 eV

  energy without entropy =     -210.42031211  energy(sigma->0) =     -210.41868780


--------------------------------------------------------------------------------------------------------




--------------------------------------- Iteration      1(   4)  ---------------------------------------


     EDDAV:  cpu time  387.3413: real time  194.1967
       DOS:  cpu time    0.1380: real time    0.0755
    --------------------------------------------
      LOOP:  cpu time  387.4794: real time  194.2722

 eigenvalue-minimisations  : 20784
 total energy-change (2. order) :-0.6336084E+02  (-0.5794096E+02)
 number of electron     716.0000000 magnetization      67.0000000
 augmentation part      716.0000000 magnetization      67.0000000

 DIPCOR: dipole corrections for dipol
 direction  3 min pos     1,
 dipolmoment           0.000000      0.000000     -0.000063 electrons x Angstroem
 Tr[quadrupol]    -12687.376952

 energy correction for charged system         0.000000 eV
 dipol+quadrupol energy correction           -0.000000 eV
 added-field ion interaction          0.000194 eV  (added to PSCEN)


 Free energy of the ion-electron system (eV)
  ---------------------------------------------------
  alpha Z        PSCENC =      1008.30323226
  Ewald energy   TEWEN  =    586879.03736171
  -Hartree energ DENC   =   -671381.89603857
  -exchange      EXHF   =         0.00000000
  -V(xc)+E(xc)   XCENC  =      2974.12765328
  PAW double counting   =     79151.23636442   -85926.92333651
  entropy T*S    EENTRO =         0.06964386
  eigenvalues    EBANDS =     -2708.23939916
  atomic energy  EATOM  =     89730.50580390
  Solvation  Ediel_sol  =         0.00000000
  ---------------------------------------------------
  free energy    TOTEN  =      -273.77871481 eV

  energy without entropy =     -273.84835867  energy(sigma->0) =     -273.80192943


--------------------------------------------------------------------------------------------------------




--------------------------------------- Iteration      1(   5)  ---------------------------------------


     EDDAV:  cpu time  399.9482: real time  200.5204
       DOS:  cpu time    0.2127: real time    0.1494
    CHARGE:  cpu time    7.4137: real time    7.3149
    MIXING:  cpu time    0.0385: real time    0.0193
    --------------------------------------------
      LOOP:  cpu time  407.6131: real time  208.0040

 eigenvalue-minimisations  : 21840
 total energy-change (2. order) :-0.3913855E+01  (-0.3726320E+01)
 number of electron     716.0000470 magnetization      63.3025962
 augmentation part      417.4060551 magnetization      61.6218039

 DIPCOR: dipole corrections for dipol
 direction  3 min pos     1,
 dipolmoment           0.000000      0.000000     -0.000063 electrons x Angstroem
 Tr[quadrupol]    -12687.376952

 energy correction for charged system         0.000000 eV
 dipol+quadrupol energy correction           -0.000000 eV
 added-field ion interaction          0.000194 eV  (added to PSCEN)


 Broyden mixing:
  rms(total) = 0.75139E+01    rms(broyden)= 0.75132E+01
  rms(prec ) = 0.76815E+01
  weight for this iteration     100.00

 Free energy of the ion-electron system (eV)
  ---------------------------------------------------
  alpha Z        PSCENC =      1008.30323226
  Ewald energy   TEWEN  =    586879.03736171
  -Hartree energ DENC   =   -671381.89603857
  -exchange      EXHF   =         0.00000000
  -V(xc)+E(xc)   XCENC  =      2974.12765328
  PAW double counting   =     79151.23636442   -85926.92333651
  entropy T*S    EENTRO =         0.08187512
  eigenvalues    EBANDS =     -2712.16548568
  atomic energy  EATOM  =     89730.50580390
  Solvation  Ediel_sol  =         0.00000000
  ---------------------------------------------------
  free energy    TOTEN  =      -277.69257008 eV

  energy without entropy =     -277.77444520  energy(sigma->0) =     -277.71986179


--------------------------------------------------------------------------------------------------------




--------------------------------------- Iteration      1(   6)  ---------------------------------------


    POTLOK:  cpu time    0.9636: real time    0.8539
    SETDIJ:  cpu time    0.0686: real time    0.0409
    EDDIAG:  cpu time   48.4913: real time   24.3120
  RMM-DIIS:  cpu time  199.1405: real time   99.8446
    ORTHCH:  cpu time    6.9128: real time    3.4678
       DOS:  cpu time    0.2060: real time    0.1387
    CHARGE:  cpu time    7.0074: real time    6.8977
    MIXING:  cpu time    0.0390: real time    0.0196
    --------------------------------------------
      LOOP:  cpu time  262.8294: real time  135.5752

 eigenvalue-minimisations  : 14871
 total energy-change (2. order) : 0.4842395E+02  (-0.7305633E+02)
 number of electron     716.0000524 magnetization      60.9663475
 augmentation part      472.8635846 magnetization      45.7626307

 DIPCOR: dipole corrections for dipol
 direction  3 min pos     1,
 dipolmoment           0.000000      0.000000      0.683764 electrons x Angstroem
 Tr[quadrupol]    -12684.181628

 energy correction for charged system         0.000000 eV
 dipol+quadrupol energy correction           -0.013846 eV
 added-field ion interaction         -2.090585 eV  (added to PSCEN)


 Broyden mixing:
  rms(total) = 0.43384E+01    rms(broyden)= 0.43362E+01
  rms(prec ) = 0.45403E+01
  weight for this iteration     100.00

 eigenvalues of (default mixing * dielectric matrix)
  average eigenvalue GAMMA=   0.7632
  0.7632

 Free energy of the ion-electron system (eV)
  ---------------------------------------------------
  alpha Z        PSCENC =      1006.19860734
  Ewald energy   TEWEN  =    586879.03736171
  -Hartree energ DENC   =   -669502.35981907
  -exchange      EXHF   =         0.00000000
  -V(xc)+E(xc)   XCENC  =      2913.99520258
  PAW double counting   =     80339.64500654   -86769.14447690
  entropy T*S    EENTRO =        -0.04716633
  eigenvalues    EBANDS =     -4827.09913609
  atomic energy  EATOM  =     89730.50580390
  Solvation  Ediel_sol  =         0.00000000
  ---------------------------------------------------
  free energy    TOTEN  =      -229.26861631 eV

  energy without entropy =     -229.22144998  energy(sigma->0) =     -229.25289420


--------------------------------------------------------------------------------------------------------




--------------------------------------- Iteration      1(   7)  ---------------------------------------


    POTLOK:  cpu time    0.9649: real time    0.8549
    SETDIJ:  cpu time    0.0667: real time    0.0399
    EDDIAG:  cpu time   48.6615: real time   24.4023
  RMM-DIIS:  cpu time  199.5312: real time  100.0413
    ORTHCH:  cpu time    6.9057: real time    3.4612
       DOS:  cpu time    0.2194: real time    0.1582
    CHARGE:  cpu time    7.6063: real time    7.5189
    MIXING:  cpu time    0.0378: real time    0.0190
    --------------------------------------------
      LOOP:  cpu time  263.9934: real time  136.4957

 eigenvalue-minimisations  : 14902
 total energy-change (2. order) : 0.4450153E+02  (-0.1570236E+02)
 number of electron     716.0000503 magnetization      58.4453445
 augmentation part      449.2749090 magnetization      41.7081145

 DIPCOR: dipole corrections for dipol
 direction  3 min pos     1,
 dipolmoment           0.000000      0.000000     -0.596979 electrons x Angstroem
 Tr[quadrupol]    -12692.962090

 energy correction for charged system         0.000000 eV
 dipol+quadrupol energy correction           -0.010555 eV
 added-field ion interaction          1.825241 eV  (added to PSCEN)


 Broyden mixing:
  rms(total) = 0.20170E+01    rms(broyden)= 0.20141E+01
  rms(prec ) = 0.21818E+01
  weight for this iteration     100.00

 eigenvalues of (default mixing * dielectric matrix)
  average eigenvalue GAMMA=   0.7889
  1.0251  0.5527

 Free energy of the ion-electron system (eV)
  ---------------------------------------------------
  alpha Z        PSCENC =      1010.11772427
  Ewald energy   TEWEN  =    586879.03736171
  -Hartree energ DENC   =   -670627.96297587
  -exchange      EXHF   =         0.00000000
  -V(xc)+E(xc)   XCENC  =      2951.83311199
  PAW double counting   =     82255.10181286   -89020.41028504
  entropy T*S    EENTRO =        -0.00506267
  eigenvalues    EBANDS =     -3362.98457481
  atomic energy  EATOM  =     89730.50580390
  Solvation  Ediel_sol  =         0.00000000
  ---------------------------------------------------
  free energy    TOTEN  =      -184.76708367 eV

  energy without entropy =     -184.76202099  energy(sigma->0) =     -184.76539611


--------------------------------------------------------------------------------------------------------




--------------------------------------- Iteration      1(   8)  ---------------------------------------


    POTLOK:  cpu time    0.9545: real time    0.8423
    SETDIJ:  cpu time    0.0670: real time    0.0402
    EDDIAG:  cpu time   48.4179: real time   24.2802
  RMM-DIIS:  cpu time  200.1348: real time  100.3429
    ORTHCH:  cpu time    6.9254: real time    3.4711
       DOS:  cpu time    0.2608: real time    0.2046
    CHARGE:  cpu time    6.9811: real time    6.9309
    MIXING:  cpu time    0.0395: real time    0.0198
    --------------------------------------------
      LOOP:  cpu time  263.7811: real time  136.1321

 eigenvalue-minimisations  : 14929
 total energy-change (2. order) : 0.7128261E+01  (-0.1783617E+01)
 number of electron     716.0000492 magnetization      56.3683003
 augmentation part      448.8344947 magnetization      38.0060959

 DIPCOR: dipole corrections for dipol
 direction  3 min pos     1,
 dipolmoment           0.000000      0.000000      1.064526 electrons x Angstroem
 Tr[quadrupol]    -12693.805686

 energy correction for charged system         0.000000 eV
 dipol+quadrupol energy correction           -0.033561 eV
 added-field ion interaction         -3.254748 eV  (added to PSCEN)


 Broyden mixing:
  rms(total) = 0.21131E+01    rms(broyden)= 0.21120E+01
  rms(prec ) = 0.24910E+01
  weight for this iteration     100.00

 eigenvalues of (default mixing * dielectric matrix)
  average eigenvalue GAMMA=   0.6533
  1.0932  0.5716  0.2950

 Free energy of the ion-electron system (eV)
  ---------------------------------------------------
  alpha Z        PSCENC =      1005.01472880
  Ewald energy   TEWEN  =    586879.03736171
  -Hartree energ DENC   =   -670675.40846481
  -exchange      EXHF   =         0.00000000
  -V(xc)+E(xc)   XCENC  =      2958.20964108
  PAW double counting   =     83184.87446219   -90006.77348688
  entropy T*S    EENTRO =         0.03746837
  eigenvalues    EBANDS =     -3253.13633714
  atomic energy  EATOM  =     89730.50580390
  Solvation  Ediel_sol  =         0.00000000
  ---------------------------------------------------
  free energy    TOTEN  =      -177.63882277 eV

  energy without entropy =     -177.67629114  energy(sigma->0) =     -177.65131223


--------------------------------------------------------------------------------------------------------




--------------------------------------- Iteration      1(   9)  ---------------------------------------


    POTLOK:  cpu time    0.9485: real time    0.8379
    SETDIJ:  cpu time    0.0667: real time    0.0400
    EDDIAG:  cpu time   49.2463: real time   24.6898
  RMM-DIIS:  cpu time  199.5016: real time  100.0240
    ORTHCH:  cpu time    6.9406: real time    3.4824
       DOS:  cpu time    0.1913: real time    0.1280
    CHARGE:  cpu time    7.1725: real time    7.0541
    MIXING:  cpu time    0.0402: real time    0.0201
    --------------------------------------------
      LOOP:  cpu time  264.1077: real time  136.2765

 eigenvalue-minimisations  : 14928
 total energy-change (2. order) : 0.1378681E+02  (-0.9760248E+00)
 number of electron     716.0000505 magnetization      51.2867117
 augmentation part      450.3171318 magnetization      32.9048742

 DIPCOR: dipole corrections for dipol
 direction  3 min pos     1,
 dipolmoment           0.000000      0.000000     -0.055902 electrons x Angstroem
 Tr[quadrupol]    -12696.153982

 energy correction for charged system         0.000000 eV
 dipol+quadrupol energy correction           -0.000093 eV
 added-field ion interaction          0.170917 eV  (added to PSCEN)


 Broyden mixing:
  rms(total) = 0.14397E+01    rms(broyden)= 0.14394E+01
  rms(prec ) = 0.14711E+01
  weight for this iteration     100.00

 eigenvalues of (default mixing * dielectric matrix)
  average eigenvalue GAMMA=   0.7352
  1.2758  0.8161  0.5998  0.2489

 Free energy of the ion-electron system (eV)
  ---------------------------------------------------
  alpha Z        PSCENC =      1008.47386260
  Ewald energy   TEWEN  =    586879.03736171
  -Hartree energ DENC   =   -670756.19971236
  -exchange      EXHF   =         0.00000000
  -V(xc)+E(xc)   XCENC  =      2960.16896669
  PAW double counting   =     83809.71496312   -90662.74947697
  entropy T*S    EENTRO =        -0.01616449
  eigenvalues    EBANDS =     -3132.78761752
  atomic energy  EATOM  =     89730.50580390
  Solvation  Ediel_sol  =         0.00000000
  ---------------------------------------------------
  free energy    TOTEN  =      -163.85201333 eV

  energy without entropy =     -163.83584884  energy(sigma->0) =     -163.84662517


--------------------------------------------------------------------------------------------------------




--------------------------------------- Iteration      1(  10)  ---------------------------------------


    POTLOK:  cpu time    0.9459: real time    0.8353
    SETDIJ:  cpu time    0.0676: real time    0.0404
    EDDIAG:  cpu time   48.4823: real time   24.3110
  RMM-DIIS:  cpu time  199.8189: real time  100.1933
    ORTHCH:  cpu time    6.9274: real time    3.4720
       DOS:  cpu time    0.2085: real time    0.1452
    CHARGE:  cpu time    7.2022: real time    7.1019
    MIXING:  cpu time    0.0442: real time    0.0222
    --------------------------------------------
      LOOP:  cpu time  263.6969: real time  136.1213

 eigenvalue-minimisations  : 14971
 total energy-change (2. order) : 0.6931218E+01  (-0.1074371E+01)
 number of electron     716.0000499 magnetization      43.5192106
 augmentation part      450.5637577 magnetization      24.9667331

 DIPCOR: dipole corrections for dipol
 direction  3 min pos     1,
 dipolmoment           0.000000      0.000000      0.090517 electrons x Angstroem
 Tr[quadrupol]    -12700.004162

 energy correction for charged system         0.000000 eV
 dipol+quadrupol energy correction           -0.000243 eV
 added-field ion interaction         -0.276753 eV  (added to PSCEN)


 Broyden mixing:
  rms(total) = 0.11877E+01    rms(broyden)= 0.11873E+01
  rms(prec ) = 0.12010E+01
  weight for this iteration     100.00

 eigenvalues of (default mixing * dielectric matrix)
  average eigenvalue GAMMA=   1.0183
  2.6115  1.0916  0.6360  0.4994  0.2530

 Free energy of the ion-electron system (eV)
  ---------------------------------------------------
  alpha Z        PSCENC =      1008.02604255
  Ewald energy   TEWEN  =    586879.03736171
  -Hartree energ DENC   =   -670925.78473574
  -exchange      EXHF   =         0.00000000
  -V(xc)+E(xc)   XCENC  =      2960.59757409
  PAW double counting   =     84944.87853038   -91851.27832302
  entropy T*S    EENTRO =        -0.00599163
  eigenvalues    EBANDS =     -2902.89705764
  atomic energy  EATOM  =     89730.50580390
  Solvation  Ediel_sol  =         0.00000000
  ---------------------------------------------------
  free energy    TOTEN  =      -156.92079541 eV

  energy without entropy =     -156.91480377  energy(sigma->0) =     -156.91879819


--------------------------------------------------------------------------------------------------------




--------------------------------------- Iteration      1(  11)  ---------------------------------------


    POTLOK:  cpu time    0.9644: real time    0.8551
    SETDIJ:  cpu time    0.0672: real time    0.0403
    EDDIAG:  cpu time   48.5776: real time   24.3542
  RMM-DIIS:  cpu time  199.7677: real time  100.1538
    ORTHCH:  cpu time    6.9216: real time    3.4725
       DOS:  cpu time    0.1912: real time    0.1267
    CHARGE:  cpu time    7.2960: real time    7.1766
    MIXING:  cpu time    0.0419: real time    0.0210
    --------------------------------------------
      LOOP:  cpu time  263.8274: real time  136.2002

 eigenvalue-minimisations  : 14895
 total energy-change (2. order) : 0.6382286E+01  (-0.7335651E+00)
 number of electron     716.0000504 magnetization      37.4173600
 augmentation part      450.8428925 magnetization      19.5831994

 DIPCOR: dipole corrections for dipol
 direction  3 min pos     1,
 dipolmoment           0.000000      0.000000      0.237972 electrons x Angstroem
 Tr[quadrupol]    -12703.376845

 energy correction for charged system         0.000000 eV
 dipol+quadrupol energy correction           -0.001677 eV
 added-field ion interaction         -0.727591 eV  (added to PSCEN)


 Broyden mixing:
  rms(total) = 0.94697E+00    rms(broyden)= 0.94577E+00
  rms(prec ) = 0.96460E+00
  weight for this iteration     100.00

 eigenvalues of (default mixing * dielectric matrix)
  average eigenvalue GAMMA=   1.0746
  3.1723  1.1421  0.7728  0.6716  0.2547  0.4341

 Free energy of the ion-electron system (eV)
  ---------------------------------------------------
  alpha Z        PSCENC =      1007.57377039
  Ewald energy   TEWEN  =    586879.03736171
  -Hartree energ DENC   =   -671097.01702702
  -exchange      EXHF   =         0.00000000
  -V(xc)+E(xc)   XCENC  =      2963.64705606
  PAW double counting   =     86011.67480448   -92966.11828499
  entropy T*S    EENTRO =         0.02447903
  eigenvalues    EBANDS =     -2679.86647300
  atomic energy  EATOM  =     89730.50580390
  Solvation  Ediel_sol  =         0.00000000
  ---------------------------------------------------
  free energy    TOTEN  =      -150.53850944 eV

  energy without entropy =     -150.56298847  energy(sigma->0) =     -150.54666911


--------------------------------------------------------------------------------------------------------




--------------------------------------- Iteration      1(  12)  ---------------------------------------


    POTLOK:  cpu time    0.9593: real time    0.8494
    SETDIJ:  cpu time    0.0668: real time    0.0401
    EDDIAG:  cpu time   48.8291: real time   24.4809
  RMM-DIIS:  cpu time  199.0102: real time   99.7825
    ORTHCH:  cpu time    6.9670: real time    3.5169
       DOS:  cpu time    0.2568: real time    0.2133
    CHARGE:  cpu time    7.2427: real time    7.2019
    MIXING:  cpu time    0.0515: real time    0.0258
    --------------------------------------------
      LOOP:  cpu time  263.3833: real time  136.1106

 eigenvalue-minimisations  : 14920
 total energy-change (2. order) :-0.6457787E+01  (-0.2975750E+00)
 number of electron     716.0000499 magnetization      32.6562782
 augmentation part      450.6848451 magnetization      16.7632771

 DIPCOR: dipole corrections for dipol
 direction  3 min pos     1,
 dipolmoment           0.000000      0.000000      0.339525 electrons x Angstroem
 Tr[quadrupol]    -12705.866107

 energy correction for charged system         0.000000 eV
 dipol+quadrupol energy correction           -0.003414 eV
 added-field ion interaction         -1.038085 eV  (added to PSCEN)


 Broyden mixing:
  rms(total) = 0.82066E+00    rms(broyden)= 0.81946E+00
  rms(prec ) = 0.85408E+00
  weight for this iteration     100.00

 eigenvalues of (default mixing * dielectric matrix)
  average eigenvalue GAMMA=   1.1813
  4.1805  1.2841  0.7894  0.7894  0.5814  0.2543  0.3902

 Free energy of the ion-electron system (eV)
  ---------------------------------------------------
  alpha Z        PSCENC =      1007.26153950
  Ewald energy   TEWEN  =    586879.03736171
  -Hartree energ DENC   =   -671217.96791811
  -exchange      EXHF   =         0.00000000
  -V(xc)+E(xc)   XCENC  =      2959.01927816
  PAW double counting   =     86042.66754648   -92994.79141694
  entropy T*S    EENTRO =         0.03708503
  eigenvalues    EBANDS =     -2562.76557649
  atomic energy  EATOM  =     89730.50580390
  Solvation  Ediel_sol  =         0.00000000
  ---------------------------------------------------
  free energy    TOTEN  =      -156.99629677 eV

  energy without entropy =     -157.03338180  energy(sigma->0) =     -157.00865844


--------------------------------------------------------------------------------------------------------




--------------------------------------- Iteration      1(  13)  ---------------------------------------


    POTLOK:  cpu time    0.9672: real time    0.8556
    SETDIJ:  cpu time    0.0667: real time    0.0400
    EDDIAG:  cpu time   48.6182: real time   24.3813
  RMM-DIIS:  cpu time  199.4439: real time   99.9967
    ORTHCH:  cpu time    6.9479: real time    3.4889
       DOS:  cpu time    0.2192: real time    0.1505
    CHARGE:  cpu time    7.3959: real time    7.3015
    MIXING:  cpu time    0.0441: real time    0.0221
    --------------------------------------------
      LOOP:  cpu time  263.7033: real time  136.2366

 eigenvalue-minimisations  : 14907
 total energy-change (2. order) :-0.6452856E+01  (-0.2248894E+00)
 number of electron     716.0000500 magnetization      28.8512884
 augmentation part      450.7075545 magnetization      14.4816542

 DIPCOR: dipole corrections for dipol
 direction  3 min pos     1,
 dipolmoment           0.000000      0.000000      0.216456 electrons x Angstroem
 Tr[quadrupol]    -12706.232006

 energy correction for charged system         0.000000 eV
 dipol+quadrupol energy correction           -0.001388 eV
 added-field ion interaction         -0.661806 eV  (added to PSCEN)


 Broyden mixing:
  rms(total) = 0.63401E+00    rms(broyden)= 0.63390E+00
  rms(prec ) = 0.64640E+00
  weight for this iteration     100.00

 eigenvalues of (default mixing * dielectric matrix)
  average eigenvalue GAMMA=   1.2407
  4.9949  1.4138  0.9129  0.9129  0.6097  0.2542  0.4546  0.3724

 Free energy of the ion-electron system (eV)
  ---------------------------------------------------
  alpha Z        PSCENC =      1007.63984483
  Ewald energy   TEWEN  =    586879.03736171
  -Hartree energ DENC   =   -671239.32666152
  -exchange      EXHF   =         0.00000000
  -V(xc)+E(xc)   XCENC  =      2954.71309948
  PAW double counting   =     85960.07472721   -92906.38200304
  entropy T*S    EENTRO =         0.02921744
  eigenvalues    EBANDS =     -2549.74054241
  atomic energy  EATOM  =     89730.50580390
  Solvation  Ediel_sol  =         0.00000000
  ---------------------------------------------------
  free energy    TOTEN  =      -163.44915239 eV

  energy without entropy =     -163.47836983  energy(sigma->0) =     -163.45889153


--------------------------------------------------------------------------------------------------------




--------------------------------------- Iteration      1(  14)  ---------------------------------------


    POTLOK:  cpu time    0.9590: real time    0.8489
    SETDIJ:  cpu time    0.0694: real time    0.0413
    EDDIAG:  cpu time   48.5906: real time   24.3604
  RMM-DIIS:  cpu time  200.6143: real time  100.6058
    ORTHCH:  cpu time    6.9200: real time    3.4713
       DOS:  cpu time    0.2000: real time    0.1346
    CHARGE:  cpu time    7.3036: real time    7.1926
    MIXING:  cpu time    0.0481: real time    0.0241
    --------------------------------------------
      LOOP:  cpu time  264.7049: real time  136.6790

 eigenvalue-minimisations  : 14918
 total energy-change (2. order) :-0.1198597E+02  (-0.3759324E+00)
 number of electron     716.0000503 magnetization      20.4339954
 augmentation part      450.5335867 magnetization       7.6393482

 DIPCOR: dipole corrections for dipol
 direction  3 min pos     1,
 dipolmoment           0.000000      0.000000      0.223910 electrons x Angstroem
 Tr[quadrupol]    -12705.745139

 energy correction for charged system         0.000000 eV
[...]
   0.220E+02 0.356E+02 -.380E+04   -.221E+02 -.355E+02 0.379E+04   0.129E+00 -.133E+00 0.352E+01   -.129E-03 -.774E-04 -.168E-02
   0.743E+02 0.780E+02 -.371E+04   -.757E+02 -.781E+02 0.370E+04   0.130E+01 0.555E-01 0.298E+01   -.336E-03 -.190E-03 -.161E-02
   0.743E+02 -.781E+02 -.371E+04   -.756E+02 0.781E+02 0.370E+04   0.130E+01 -.555E-01 0.298E+01   -.392E-03 0.183E-03 -.162E-02
   0.220E+02 -.356E+02 -.380E+04   -.221E+02 0.354E+02 0.379E+04   0.129E+00 0.134E+00 0.352E+01   -.133E-03 0.840E-04 -.169E-02
   -.542E+01 0.504E+02 -.379E+04   0.554E+01 -.505E+02 0.378E+04   -.119E+00 0.834E-01 0.340E+01   -.157E-03 -.862E-04 -.164E-02
   -.502E+02 0.131E+03 -.366E+04   0.509E+02 -.133E+03 0.366E+04   -.702E+00 0.256E+01 0.253E+01   -.870E-04 -.426E-03 -.171E-02
   -.501E+02 -.131E+03 -.366E+04   0.508E+02 0.133E+03 0.366E+04   -.707E+00 -.256E+01 0.254E+01   -.731E-04 0.377E-03 -.172E-02
   -.543E+01 -.504E+02 -.379E+04   0.555E+01 0.505E+02 0.378E+04   -.119E+00 -.827E-01 0.340E+01   -.156E-03 0.145E-03 -.167E-02
   -.256E+02 0.253E+02 -.381E+04   0.256E+02 -.253E+02 0.380E+04   -.187E-01 0.639E-01 0.351E+01   0.221E-03 -.123E-03 -.166E-02
   -.566E+02 0.249E+02 -.375E+04   0.570E+02 -.252E+02 0.375E+04   -.402E+00 0.268E+00 0.348E+01   0.332E-03 -.723E-04 -.166E-02
   -.566E+02 -.250E+02 -.375E+04   0.570E+02 0.253E+02 0.375E+04   -.400E+00 -.267E+00 0.347E+01   0.398E-03 0.811E-04 -.168E-02
   -.256E+02 -.252E+02 -.381E+04   0.256E+02 0.253E+02 0.380E+04   -.183E-01 -.644E-01 0.351E+01   0.229E-03 0.114E-03 -.168E-02
   0.484E+02 -.289E+00 -.195E+04   -.487E+02 0.328E+00 0.193E+04   0.258E+00 -.386E-01 0.272E+02   -.350E-03 -.400E-04 -.816E-03
   -.392E+02 0.256E+00 -.265E+04   0.476E+02 -.314E+00 0.270E+04   -.835E+01 0.589E-01 -.553E+02   -.154E-03 -.123E-04 -.834E-04
   0.281E+02 -.203E-01 -.423E+03   -.284E+02 0.210E-01 0.424E+03   0.377E+00 -.290E-03 -.645E+00   -.926E-04 -.377E-05 -.138E-03
 -----------------------------------------------------------------------------------------------
   0.679E+01 -.143E-01 0.330E+02   -.639E-12 -.131E-12 0.909E-11   -.679E+01 0.148E-01 -.329E+02   -.367E-03 -.421E-04 -.757E-01
 
 
 POSITION                                       TOTAL-FORCE (eV/Angst)
 -----------------------------------------------------------------------------------
      1.26023      1.26118     12.30300         0.012850     -0.006506     -0.013457
      1.26021      3.78419     12.30289         0.015575      0.000286     -0.000300
      1.26024      6.30722     12.30298         0.013108      0.005713     -0.013206
      1.26024      8.82980     12.30294         0.026143      0.000115      0.024901
      3.78391      1.26087     12.30033         0.011159      0.002127      0.015626
      3.78395      3.78419     12.29989         0.016552      0.000273      0.038688
      3.78391      6.30753     12.30031         0.010933     -0.003142      0.015753
      3.78388      8.82980     12.30070         0.006830      0.000174      0.013291
      6.30853      1.26103     12.30152        -0.005557     -0.014758     -0.010910
      6.30863      3.78419     12.30129        -0.018359      0.000095      0.010728
      6.30854      6.30737     12.30149        -0.005426      0.014101     -0.010936
      6.30845      8.82980     12.30165        -0.011636      0.000143      0.027802
      8.83051      1.26135     12.30419        -0.004823     -0.006467      0.001656
      8.83052      3.78419     12.30427         0.006486      0.000249     -0.009852
      8.83051      6.30705     12.30417        -0.004856      0.005887      0.001801
      8.83050      8.82980     12.30389        -0.011890      0.000133      0.018256
      0.00395     10.09059     14.08086         0.002816     -0.000145     -0.010894
      0.00279      2.52105     14.07830         0.001658     -0.001327     -0.011443
      0.00285      5.04733     14.07819         0.001067      0.001095     -0.010812
      0.00395      7.56894     14.08095         0.003389      0.000024     -0.011218
      2.52838      0.00008     14.08645         0.004796     -0.000365     -0.009674
      2.52738      2.51931     14.07707         0.002109     -0.001491     -0.009137
      2.52736      5.04891     14.07739         0.002894      0.002489     -0.011973
      2.52845      7.56816     14.08633         0.003801      0.000234     -0.009300
      5.04350      0.00062     14.08690        -0.000492      0.000219     -0.008815
      5.04977      2.51825     14.07598         0.003659     -0.002879     -0.010331
      5.04978      5.05003     14.07584         0.003131      0.002633     -0.009129
      5.04347      7.56761     14.08694        -0.000404     -0.000354     -0.009073
      7.56672     10.08951     14.08253        -0.000713     -0.001177     -0.010203
      7.56822      2.52295     14.08056        -0.000029      0.000245     -0.008289
      7.56825      5.04540     14.08070        -0.000089     -0.000399     -0.009599
      7.56669      7.57003     14.08241        -0.000240      0.000497     -0.009524
      1.27153      1.26346     15.89965        -0.005527     -0.001102      0.007840
      1.27373      3.78414     15.88237        -0.006263      0.000064      0.000629
      1.27168      6.30465     15.89978        -0.005668      0.001582      0.007826
      1.26348      8.82971     15.90022        -0.000593     -0.000033      0.008698
      3.79579      1.28736     15.92377        -0.009225     -0.009696      0.007588
      3.79919      3.78407     15.87045        -0.006127      0.000379     -0.002334
      3.79588      6.28074     15.92391        -0.008664      0.009004      0.007397
      3.78586      8.82963     15.89978         0.000033      0.000064      0.009299
      6.30481      1.27096     15.90784        -0.000445     -0.003712      0.010314
      6.29848      3.78404     15.90074        -0.000341      0.000506      0.011997
      6.30489      6.29707     15.90785        -0.001017      0.003850      0.010621
      6.30756      8.82962     15.90063         0.000165      0.000105      0.010049
      8.83735      1.25473     15.88869        -0.004700      0.002800      0.006393
      8.83876      3.78419     15.88259        -0.005779      0.000092      0.004457
      8.83743      6.31355     15.88872        -0.004825     -0.002798      0.006258
      8.83045      8.82977     15.90370         0.000014      0.000056      0.009661
      0.00433      0.00192     17.67802         0.003495      0.001395     -0.010844
     10.08959      2.52326     17.67099        -0.004277      0.000167     -0.009780
     10.08965      5.04507     17.67103        -0.004507     -0.000382     -0.009946
      0.00449      7.56641     17.67795         0.002669     -0.001205     -0.010666
      2.52397     10.09019     17.67899         0.000910     -0.000269     -0.012306
      2.48548      2.51542     17.69150        -0.018272     -0.001780      0.001301
      2.48570      5.05265     17.69193        -0.018518      0.001782     -0.000022
      2.52408      7.56914     17.67906         0.001130      0.000340     -0.012674
      5.04582     10.08264     17.68313         0.000253     -0.006197     -0.008972
      5.11060      2.48050     17.75728        -0.011199     -0.006624      0.000759
      5.11067      5.08730     17.75753        -0.012026      0.005907      0.001413
      5.04592      7.57636     17.68325         0.000269      0.006211     -0.008925
      7.56768      0.00140     17.67893         0.000281      0.000171     -0.010247
      7.60905      2.51987     17.65856        -0.000331     -0.000738      0.006931
      7.60900      5.04847     17.65856         0.000433      0.000629      0.007034
      7.56778      7.56697     17.67898         0.000209     -0.000661     -0.010910
      4.48553      3.78299     19.18308         0.018519      0.000403      0.005554
      4.66406      3.78173     20.39085         0.024316      0.001504      0.010719
      3.07721      3.78375     18.75597        -0.008834      0.000463      0.004461
 -----------------------------------------------------------------------------------
    total drift:                                0.005199      0.000541      0.098592


--------------------------------------------------------------------------------------------------------



  FREE ENERGIE OF THE ION-ELECTRON SYSTEM (eV)
  ---------------------------------------------------
  free  energy   TOTEN  =      -258.36912440 eV

  energy  without entropy=     -258.38974060  energy(sigma->0) =     -258.37599647
 


--------------------------------------------------------------------------------------------------------


    POTLOK:  cpu time    0.9396: real time    1.0019


--------------------------------------------------------------------------------------------------------


 NEB: the previous image is higher in energy: F
 NEB: the next image is higher in energy    : F
 NEB: image is at an extrema
 NEB: diff energy (min, max):     0.319948    0.396010

 NEB: Tangent
 ----------------------------------------------
     -0.00011      0.00001      0.00196
     -0.00015     -0.00000      0.00187
     -0.00011     -0.00001      0.00197
     -0.00006     -0.00000      0.00203
     -0.00052      0.00009      0.00238
     -0.00055      0.00000      0.00244
     -0.00052     -0.00010      0.00238
     -0.00049     -0.00000      0.00233
     -0.00079      0.00005      0.00181
     -0.00087      0.00000      0.00185
     -0.00080     -0.00005      0.00182
     -0.00073     -0.00000      0.00180
     -0.00036     -0.00004      0.00140
     -0.00045     -0.00000      0.00132
     -0.00036      0.00003      0.00141
     -0.00026     -0.00000      0.00154
     -0.00513     -0.00245      0.00128
     -0.00510      0.00154      0.00444
     -0.00515     -0.00162      0.00446
     -0.00521      0.00231      0.00131
     -0.00327     -0.00011      0.00045
     -0.00618     -0.00031     -0.00048
     -0.00617      0.00024     -0.00048
     -0.00345      0.00018      0.00041
      0.00077     -0.00069     -0.00066
     -0.00326      0.00242      0.00368
     -0.00329     -0.00237      0.00371
      0.00073      0.00083     -0.00071
     -0.00202      0.00241      0.00229
     -0.00378     -0.00029      0.00197
     -0.00378      0.00022      0.00188
     -0.00212     -0.00251      0.00230
     -0.01345     -0.00624     -0.00402
     -0.01223     -0.00011      0.01069
     -0.01385      0.00606     -0.00398
     -0.00394     -0.00010      0.00427
     -0.00382     -0.00944     -0.01134
     -0.01839     -0.00005      0.00226
     -0.00445      0.00996     -0.01187
     -0.00409      0.00029      0.00024
     -0.00547      0.00270      0.00732
     -0.00708      0.00007      0.00859
     -0.00563     -0.00261      0.00730
     -0.00234      0.00012      0.00007
     -0.01172      0.00092      0.00593
     -0.01692     -0.00001      0.00758
     -0.01218     -0.00138      0.00618
     -0.00302     -0.00017      0.00305
     -0.00517      0.00008      0.00406
     -0.00655      0.00122      0.00091
     -0.00685     -0.00148      0.00097
     -0.00539     -0.00032      0.00408
     -0.00199     -0.00140      0.00222
     -0.01689     -0.00911     -0.02743
     -0.01734      0.00879     -0.02741
     -0.00217      0.00135      0.00207
     -0.00302      0.00227     -0.00175
     -0.03525      0.01184     -0.01734
     -0.03716     -0.01077     -0.01908
     -0.00328     -0.00136     -0.00227
     -0.00365     -0.00137      0.00392
     -0.01168     -0.00090      0.01659
     -0.01239      0.00038      0.01764
     -0.00390      0.00119      0.00385
     -0.03235      0.00173      0.03457
      0.40591      0.01139     -0.15242
      0.76077      0.00115      0.46985

 NEB: forces: par spring, perp REAL, dneb     3.846782    0.083355    0.000000
 NEB: distance to prev, next image, angle between     1.231293    2.000649   90.392878
 NEB: projections on to tangent (spring, REAL)     3.846782    0.005153

 stress matrix after NEB project (eV)
    -22.91671     -0.00078     -0.17562
     -0.00078    -24.81675      0.01119
     -0.17562      0.01119     -5.36109
  FORCES: max atom, RMS     0.023628    0.010203
  FORCE total and by dimension    0.083514    0.020133
  Stress total and by dimension   34.203064   24.816747
 Quasi-Newton relaxation of ions (Broydens 2nd method)
  g(Force)  = 0.116E-02   g(Stress)= 0.000E+00

 Reset! Starting new Quasi-Newton update for ions 


--------------------------------------------------------------------------------------------------------


  
 reached required accuracy - stopping structural energy minimisation
     LOOP+:  cpu time10405.1273: real time 5572.5183
    4ORBIT:  cpu time    0.0000: real time    0.0000
 


 total charge     
 
# of ion       s       p       d       tot
------------------------------------------
    1        0.451   0.278   9.208   9.937
    2        0.452   0.278   9.208   9.938
    3        0.451   0.278   9.208   9.937
    4        0.454   0.276   9.208   9.938
    5        0.453   0.277   9.208   9.937
    6        0.450   0.278   9.207   9.935
    7        0.453   0.277   9.208   9.937
    8        0.451   0.276   9.208   9.935
    9        0.452   0.277   9.208   9.937
   10        0.453   0.277   9.207   9.938
   11        0.452   0.277   9.208   9.937
   12        0.453   0.276   9.207   9.936
   13        0.453   0.277   9.208   9.939
   14        0.451   0.278   9.208   9.938
   15        0.453   0.277   9.208   9.938
   16        0.451   0.278   9.208   9.936
   17        0.454   0.400   9.177  10.031
   18        0.454   0.402   9.177  10.033
   19        0.454   0.402   9.177  10.033
   20        0.454   0.400   9.177  10.031
   21        0.453   0.398   9.177  10.028
   22        0.456   0.400   9.177  10.033
   23        0.456   0.400   9.177  10.033
   24        0.452   0.398   9.177  10.028
   25        0.452   0.398   9.177  10.027
   26        0.456   0.400   9.178  10.034
   27        0.456   0.400   9.178  10.034
   28        0.452   0.398   9.177  10.027
   29        0.453   0.399   9.177  10.029
   30        0.453   0.400   9.178  10.031
   31        0.453   0.400   9.178  10.031
   32        0.453   0.399   9.177  10.029
   33        0.453   0.405   9.174  10.032
   34        0.453   0.400   9.179  10.032
   35        0.453   0.405   9.174  10.032
   36        0.455   0.398   9.179  10.032
   37        0.450   0.399   9.175  10.024
   38        0.456   0.383   9.184  10.023
   39        0.450   0.399   9.175  10.024
   40        0.453   0.399   9.175  10.027
   41        0.453   0.403   9.173  10.030
   42        0.451   0.397   9.177  10.024
   43        0.453   0.403   9.173  10.030
   44        0.454   0.399   9.177  10.031
   45        0.455   0.400   9.179  10.034
   46        0.455   0.404   9.175  10.034
   47        0.455   0.400   9.179  10.034
   48        0.451   0.403   9.176  10.030
   49        0.450   0.277   9.209   9.935
   50        0.455   0.280   9.210   9.945
   51        0.455   0.280   9.210   9.945
   52        0.450   0.277   9.209   9.935
   53        0.453   0.278   9.209   9.940
   54        0.451   0.326   9.193   9.971
   55        0.451   0.326   9.193   9.971
   56        0.453   0.278   9.209   9.940
   57        0.453   0.282   9.208   9.943
   58        0.448   0.331   9.179   9.958
   59        0.448   0.331   9.179   9.958
   60        0.453   0.282   9.208   9.943
   61        0.450   0.276   9.209   9.935
   62        0.458   0.282   9.211   9.951
   63        0.458   0.282   9.211   9.951
   64        0.450   0.276   9.209   9.935
   65        1.304   2.346   0.000   3.650
   66        1.629   3.440   0.000   5.068
   67        0.492   0.025   0.000   0.517
--------------------------------------------------
tot         32.409  27.706 588.241 648.356
 


 magnetization (x)
 
# of ion       s       p       d       tot
------------------------------------------
    1        0.000   0.000  -0.000  -0.000
    2        0.000   0.000  -0.000  -0.000
    3        0.000   0.000  -0.000  -0.000
    4        0.000   0.000  -0.000  -0.000
    5        0.000   0.000  -0.000  -0.000
    6        0.000   0.000  -0.000  -0.000
    7        0.000   0.000  -0.000  -0.000
    8        0.000   0.000  -0.000  -0.000
    9        0.000   0.000  -0.000  -0.000
   10        0.000   0.000  -0.000  -0.000
   11        0.000   0.000  -0.000  -0.000
   12        0.000   0.000  -0.000  -0.000
   13        0.000   0.000  -0.000  -0.000
   14        0.000   0.000  -0.000  -0.000
   15        0.000   0.000  -0.000  -0.000
   16        0.000   0.000  -0.000   0.000
   17        0.000   0.000  -0.000   0.000
   18        0.000   0.000  -0.000  -0.000
   19        0.000   0.000  -0.000  -0.000
   20        0.000   0.000  -0.000   0.000
   21        0.000   0.000  -0.000  -0.000
   22        0.000   0.000  -0.000   0.000
   23        0.000   0.000  -0.000   0.000
   24        0.000   0.000  -0.000  -0.000
   25        0.000   0.000  -0.000  -0.000
   26        0.000   0.000  -0.000   0.000
   27        0.000   0.000  -0.000   0.000
   28        0.000   0.000  -0.000  -0.000
   29        0.000   0.000  -0.000   0.000
   30        0.000   0.000  -0.000   0.000
   31        0.000   0.000  -0.000   0.000
   32        0.000   0.000  -0.000   0.000
   33        0.000  -0.000   0.000   0.000
   34        0.000  -0.000  -0.000  -0.000
   35        0.000  -0.000   0.000   0.000
   36       -0.000   0.000  -0.000  -0.000
   37       -0.000   0.000  -0.000  -0.000
   38        0.000  -0.000   0.000   0.000
   39       -0.000   0.000  -0.000  -0.000
   40        0.000  -0.000   0.000   0.000
   41       -0.000  -0.000   0.000   0.000
   42       -0.000  -0.000   0.000  -0.000
   43       -0.000  -0.000   0.000   0.000
   44       -0.000   0.000  -0.000  -0.000
   45       -0.000  -0.000   0.000   0.000
   46       -0.000  -0.000   0.000  -0.000
   47       -0.000  -0.000   0.000   0.000
   48       -0.000  -0.000   0.000   0.000
   49       -0.000  -0.000   0.000   0.000
   50       -0.000  -0.000   0.000   0.000
   51       -0.000  -0.000   0.000   0.000
   52       -0.000  -0.000   0.000   0.000
   53       -0.000  -0.000   0.000   0.000
   54        0.000  -0.000  -0.000  -0.000
   55        0.000  -0.000  -0.000  -0.000
   56       -0.000  -0.000   0.000   0.000
   57       -0.000  -0.000   0.000   0.000
   58       -0.000  -0.000  -0.000  -0.000
   59       -0.000  -0.000  -0.000  -0.000
   60       -0.000  -0.000   0.000   0.000
   61       -0.000  -0.000   0.000   0.000
   62       -0.000  -0.000   0.000   0.000
   63       -0.000  -0.000   0.000   0.000
   64       -0.000  -0.000   0.000   0.000
   65       -0.000  -0.000   0.000  -0.000
   66       -0.000  -0.000   0.000  -0.000
   67        0.000  -0.000   0.000   0.000
--------------------------------------------------
tot          0.000  -0.000  -0.000  -0.000
 

 total amount of memory used by VASP MPI-rank0   698805. kBytes
=======================================================================

   base      :      30000. kBytes
   nonlr-proj:      12036. kBytes
   fftplans  :      24435. kBytes
   grid      :      70089. kBytes
   one-center:        186. kBytes
   wavefun   :     562059. kBytes
 
  
  
 General timing and accounting informations for this job:
 ========================================================
  
                  Total CPU time used (sec):    10464.314
                            User time (sec):    10162.699
                          System time (sec):      301.615
                         Elapsed time (sec):     5786.358
  
                   Maximum memory used (kb):     1147496.
                   Average memory used (kb):           0.
  
                          Minor page faults:       731970
                          Major page faults:           10
                 Voluntary context switches:        52880
