 vasp.5.4.4.18Apr17-6-g9f103f2a35 (build May 01 2020 14:57:12) complex          
  
 executed on             LinuxIFC date 2022.02.21  15:51:04
 running on   48 total cores
 distrk:  each k-point on   48 cores,    1 groups
 distr:  one band on NCORES_PER_BAND=   1 cores,   48 groups


--------------------------------------------------------------------------------------------------------


 INCAR:
 POTCAR:    PAW_PBE Pd 04Jan2005                  
 POTCAR:    PAW_PBE N 08Apr2002                   
 POTCAR:    PAW_PBE O 08Apr2002                   
 POTCAR:    PAW_PBE H 15Jun2001                   

 ----------------------------------------------------------------------------- 
|                                                                             |
|           W    W    AA    RRRRR   N    N  II  N    N   GGGG   !!!           |
|           W    W   A  A   R    R  NN   N  II  NN   N  G    G  !!!           |
|           W    W  A    A  R    R  N N  N  II  N N  N  G       !!!           |
|           W WW W  AAAAAA  RRRRR   N  N N  II  N  N N  G  GGG   !            |
|           WW  WW  A    A  R   R   N   NN  II  N   NN  G    G                |
|           W    W  A    A  R    R  N    N  II  N    N   GGGG   !!!           |
|                                                                             |
|      For optimal performance we recommend to set                            |
|        NCORE= 4 - approx SQRT( number of cores)                             |
|      NCORE specifies how many cores store one orbital (NPAR=cpu/NCORE).     |
|      This setting can  greatly improve the performance of VASP for DFT.     |
|      The default,   NCORE=1            might be grossly inefficient         |
|      on modern multi-core architectures or massively parallel machines.     |
|      Do your own testing !!!!                                               |
|      Unfortunately you need to use the default for GW and RPA calculations. |
|      (for HF NCORE is supported but not extensively tested yet)             |
|                                                                             |
 ----------------------------------------------------------------------------- 

 POTCAR:    PAW_PBE Pd 04Jan2005                  
   VRHFIN =Pd : s1 d9                                                           
   LEXCH  = PE                                                                  
   EATOM  =   809.7530 eV,   59.5152 Ry                                         
                                                                                
   TITEL  = PAW_PBE Pd 04Jan2005                                                
   LULTRA =        F    use ultrasoft PP ?                                      
   IUNSCR =        1    unscreen: 0-lin 1-nonlin 2-no                           
   RPACOR =    2.000    partial core radius                                     
   POMASS =  106.420; ZVAL   =   10.000    mass and valenz                      
   RCORE  =    2.600    outmost cutoff radius                                   
   RWIGS  =    2.710; RWIGS  =    1.434    wigner-seitz radius (au A)           
   ENMAX  =  250.925; ENMIN  =  188.194 eV                                      
   ICORE  =        3    local potential                                         
   LCOR   =        T    correct aug charges                                     
   LPAW   =        T    paw PP                                                  
   EAUG   =  416.230                                                            
   DEXC   =    0.000                                                            
   RMAX   =    2.653    core radius for proj-oper                               
   RAUG   =    1.300    factor for augmentation sphere                          
   RDEP   =    2.734    radius for radial grids                                 
   RDEPT  =    2.103    core radius for aug-charge                              
                                                                                
   Atomic configuration                                                         
   12 entries                                                                   
     n  l   j            E        occ.                                          
     1  0  0.50    -24164.6631   2.0000                                         
     2  0  0.50     -3530.9218   2.0000                                         
     2  1  1.50     -3165.6822   6.0000                                         
     3  0  0.50      -639.4577   2.0000                                         
     3  1  1.50      -519.4532   6.0000                                         
     3  2  2.50      -328.9757  10.0000                                         
     4  0  0.50       -88.7014   2.0000                                         
     4  1  1.50       -54.4540   6.0000                                         
     4  2  2.50        -6.6878   9.0000                                         
     5  0  0.50        -4.3543   1.0000                                         
     5  1  0.50        -1.3606   0.0000                                         
     4  3  2.50        -1.3606   0.0000                                         
   Description                                                                  
     l       E           TYP  RCUT    TYP  RCUT                                 
     2     -6.6878251     23  2.400                                             
     2     -8.0484077     23  2.400                                             
     0     -4.3542939     23  2.400                                             
     0      4.3406793     23  2.400                                             
     1     -4.0817478     23  2.600                                             
     1     15.8380318     23  2.600                                             
     3     -4.0817478     23  2.400                                             
  local pseudopotential read in
  partial core-charges read in
  partial kinetic energy density read in
  atomic valenz-charges read in
  non local Contribution for L=           2  read in
    real space projection operators read in
  non local Contribution for L=           2  read in
    real space projection operators read in
  non local Contribution for L=           0  read in
    real space projection operators read in
  non local Contribution for L=           0  read in
    real space projection operators read in
  non local Contribution for L=           1  read in
    real space projection operators read in
  non local Contribution for L=           1  read in
    real space projection operators read in
    PAW grid and wavefunctions read in
 
   number of l-projection  operators is LMAX  =           6
   number of lm-projection operators is LMMAX =          18
 
 POTCAR:    PAW_PBE N 08Apr2002                   
   VRHFIN =N: s2p3                                                              
   LEXCH  = PE                                                                  
   EATOM  =   264.5486 eV,   19.4438 Ry                                         
                                                                                
   TITEL  = PAW_PBE N 08Apr2002                                                 
   LULTRA =        F    use ultrasoft PP ?                                      
   IUNSCR =        1    unscreen: 0-lin 1-nonlin 2-no                           
   RPACOR =    1.200    partial core radius                                     
   POMASS =   14.001; ZVAL   =    5.000    mass and valenz                      
   RCORE  =    1.500    outmost cutoff radius                                   
   RWIGS  =    1.400; RWIGS  =    0.741    wigner-seitz radius (au A)           
   ENMAX  =  400.000; ENMIN  =  300.000 eV                                      
   ICORE  =        2    local potential                                         
   LCOR   =        T    correct aug charges                                     
   LPAW   =        T    paw PP                                                  
   EAUG   =  627.112                                                            
   DEXC   =    0.000                                                            
   RMAX   =    1.529    core radius for proj-oper                               
   RAUG   =    1.300    factor for augmentation sphere                          
   RDEP   =    1.514    radius for radial grids                                 
   RDEPT  =    1.338    core radius for aug-charge                              
                                                                                
   Atomic configuration                                                         
    4 entries                                                                   
     n  l   j            E        occ.                                          
     1  0  0.50      -384.7179   2.0000                                         
     2  0  0.50       -18.5828   2.0000                                         
     2  1  0.50        -7.0898   3.0000                                         
     3  2  1.50        -6.8029   0.0000                                         
   Description                                                                  
     l       E           TYP  RCUT    TYP  RCUT                                 
     0    -18.5828119     23  1.200                                             
     0    -13.5018863     23  1.200                                             
     1     -7.0897853     23  1.500                                             
     1      9.5240782     23  1.500                                             
     2     -6.8029130      7  1.500                                             
  local pseudopotential read in
  partial core-charges read in
  partial kinetic energy density read in
  atomic valenz-charges read in
  non local Contribution for L=           0  read in
    real space projection operators read in
  non local Contribution for L=           0  read in
    real space projection operators read in
  non local Contribution for L=           1  read in
    real space projection operators read in
  non local Contribution for L=           1  read in
    real space projection operators read in
    PAW grid and wavefunctions read in
 
   number of l-projection  operators is LMAX  =           4
   number of lm-projection operators is LMMAX =           8
 
 POTCAR:    PAW_PBE O 08Apr2002                   
   VRHFIN =O: s2p4                                                              
   LEXCH  = PE                                                                  
   EATOM  =   432.3788 eV,   31.7789 Ry                                         
                                                                                
   TITEL  = PAW_PBE O 08Apr2002                                                 
   LULTRA =        F    use ultrasoft PP ?                                      
   IUNSCR =        1    unscreen: 0-lin 1-nonlin 2-no                           
   RPACOR =    1.200    partial core radius                                     
   POMASS =   16.000; ZVAL   =    6.000    mass and valenz                      
   RCORE  =    1.520    outmost cutoff radius                                   
   RWIGS  =    1.550; RWIGS  =    0.820    wigner-seitz radius (au A)           
   ENMAX  =  400.000; ENMIN  =  300.000 eV                                      
   ICORE  =        2    local potential                                         
   LCOR   =        T    correct aug charges                                     
   LPAW   =        T    paw PP                                                  
   EAUG   =  605.392                                                            
   DEXC   =    0.000                                                            
   RMAX   =    1.553    core radius for proj-oper                               
   RAUG   =    1.300    factor for augmentation sphere                          
   RDEP   =    1.550    radius for radial grids                                 
   RDEPT  =    1.329    core radius for aug-charge                              
                                                                                
   Atomic configuration                                                         
    4 entries                                                                   
     n  l   j            E        occ.                                          
     1  0  0.50      -514.6923   2.0000                                         
     2  0  0.50       -23.9615   2.0000                                         
     2  1  0.50        -9.0305   4.0000                                         
     3  2  1.50        -9.5241   0.0000                                         
   Description                                                                  
     l       E           TYP  RCUT    TYP  RCUT                                 
     0    -23.9615318     23  1.200                                             
     0     -9.5240782     23  1.200                                             
     1     -9.0304911     23  1.520                                             
     1      8.1634956     23  1.520                                             
     2     -9.5240782      7  1.500                                             
  local pseudopotential read in
  partial core-charges read in
  partial kinetic energy density read in
  kinetic energy density of atom read in
  atomic valenz-charges read in
  non local Contribution for L=           0  read in
    real space projection operators read in
  non local Contribution for L=           0  read in
    real space projection operators read in
  non local Contribution for L=           1  read in
    real space projection operators read in
  non local Contribution for L=           1  read in
    real space projection operators read in
    PAW grid and wavefunctions read in
 
   number of l-projection  operators is LMAX  =           4
   number of lm-projection operators is LMMAX =           8
 
 POTCAR:    PAW_PBE H 15Jun2001                   
   VRHFIN =H: ultrasoft test                                                    
   LEXCH  = PE                                                                  
   EATOM  =    12.4884 eV,    0.9179 Ry                                         
                                                                                
   TITEL  = PAW_PBE H 15Jun2001                                                 
   LULTRA =        F    use ultrasoft PP ?                                      
   IUNSCR =        0    unscreen: 0-lin 1-nonlin 2-no                           
   RPACOR =    0.000    partial core radius                                     
   POMASS =    1.000; ZVAL   =    1.000    mass and valenz                      
   RCORE  =    1.100    outmost cutoff radius                                   
   RWIGS  =    0.700; RWIGS  =    0.370    wigner-seitz radius (au A)           
   ENMAX  =  250.000; ENMIN  =  200.000 eV                                      
   RCLOC  =    0.701    cutoff for local pot                                    
   LCOR   =        T    correct aug charges                                     
   LPAW   =        T    paw PP                                                  
   EAUG   =  400.000                                                            
   RMAX   =    1.123    core radius for proj-oper                               
   RAUG   =    1.200    factor for augmentation sphere                          
   RDEP   =    1.112    radius for radial grids                                 
   RDEPT  =    0.926    core radius for aug-charge                              
                                                                                
   Atomic configuration                                                         
    2 entries                                                                   
     n  l   j            E        occ.                                          
     1  0  0.50        -6.4927   1.0000                                         
     2  1  0.50        -3.4015   0.0000                                         
   Description                                                                  
     l       E           TYP  RCUT    TYP  RCUT                                 
     0     -6.4927494     23  1.100                                             
     0      6.8029130     23  1.100                                             
     1     -4.0817478     23  1.100                                             
  local pseudopotential read in
  atomic valenz-charges read in
  non local Contribution for L=           0  read in
    real space projection operators read in
  non local Contribution for L=           0  read in
    real space projection operators read in
  non local Contribution for L=           1  read in
    real space projection operators read in
    PAW grid and wavefunctions read in
 
   number of l-projection  operators is LMAX  =           3
   number of lm-projection operators is LMMAX =           5
 
 Optimization of the real space projectors (new method)

 maximal supplied QI-value         = 14.36
 optimisation between [QCUT,QGAM] = [ 10.20, 20.39] = [ 29.12,116.47] Ry 
 Optimized for a Real-space Cutoff    1.55 Angstroem

   l    n(q)    QCUT    max X(q) W(low)/X(q) W(high)/X(q)  e(spline) 
   2      9    10.197    59.108    0.12E-03    0.40E-04    0.11E-06
   2      9    10.197    58.101    0.12E-03    0.39E-04    0.12E-06
   0      9    10.197   102.235    0.41E-04    0.86E-05    0.83E-07
   0      9    10.197    58.388    0.37E-04    0.79E-05    0.78E-07
   1      9    10.197    22.191    0.25E-03    0.13E-03    0.84E-07
   1      9    10.197    15.590    0.21E-03    0.11E-03    0.74E-07
 Optimization of the real space projectors (new method)

 maximal supplied QI-value         = 25.13
 optimisation between [QCUT,QGAM] = [ 10.05, 20.36] = [ 28.30,116.06] Ry 
 Optimized for a Real-space Cutoff    1.70 Angstroem

   l    n(q)    QCUT    max X(q) W(low)/X(q) W(high)/X(q)  e(spline) 
   0     10    10.053    79.467    0.61E-04    0.98E-04    0.61E-06
   0     10    10.053    66.151    0.60E-04    0.98E-04    0.61E-06
   1     10    10.053     8.350    0.17E-03    0.71E-03    0.45E-05
   1     10    10.053     5.531    0.18E-03    0.77E-03    0.49E-05
 Optimization of the real space projectors (new method)

 maximal supplied QI-value         = 24.76
 optimisation between [QCUT,QGAM] = [ 10.15, 20.30] = [ 28.85,115.39] Ry 
 Optimized for a Real-space Cutoff    1.51 Angstroem

   l    n(q)    QCUT    max X(q) W(low)/X(q) W(high)/X(q)  e(spline) 
   0      9    10.150    20.381    0.17E-03    0.18E-03    0.41E-06
   0      9    10.150    15.268    0.18E-03    0.20E-03    0.43E-06
   1      9    10.150     5.964    0.16E-03    0.20E-03    0.36E-06
   1      9    10.150     5.382    0.13E-03    0.16E-03    0.33E-06
 Optimization of the real space projectors (new method)

 maximal supplied QI-value         = 34.20
 optimisation between [QCUT,QGAM] = [  9.92, 20.18] = [ 27.55,114.04] Ry 
 Optimized for a Real-space Cutoff    1.34 Angstroem

   l    n(q)    QCUT    max X(q) W(low)/X(q) W(high)/X(q)  e(spline) 
   0      8     9.919    19.460    0.16E-03    0.20E-03    0.36E-06
   0      8     9.919    12.209    0.16E-03    0.20E-03    0.35E-06
   1      8     9.919     4.655    0.19E-03    0.46E-03    0.40E-06
  PAW_PBE Pd 04Jan2005                  :
 energy of atom  1       EATOM= -809.7530
 kinetic energy error for atom=    0.0091 (will be added to EATOM!!)
  PAW_PBE N 08Apr2002                   :
 energy of atom  2       EATOM= -264.5486
 kinetic energy error for atom=    0.0736 (will be added to EATOM!!)
  PAW_PBE O 08Apr2002                   :
 energy of atom  3       EATOM= -432.3788
 kinetic energy error for atom=    0.1156 (will be added to EATOM!!)
  PAW_PBE H 15Jun2001                   :
 energy of atom  4       EATOM=  -12.4884
 kinetic energy error for atom=    0.0098 (will be added to EATOM!!)
 
 
 POSCAR: Pd N O H                                
  positions in direct lattice
  velocities in cartesian coordinates
 exchange correlation table for  LEXCH =        8
   RHO(1)=    0.500       N(1)  =     2000
   RHO(2)=  100.500       N(2)  =     4000
 


--------------------------------------------------------------------------------------------------------


 ion  position               nearest neighbor table
   1  0.125  0.125  0.403-   2 2.75   5 2.75   4 2.75  13 2.75  22 2.75  21 2.75  17 2.75  18 2.76

   2  0.125  0.375  0.403-   1 2.75   3 2.75   6 2.75  14 2.75  22 2.75  23 2.75  19 2.76  18 2.76

   3  0.125  0.625  0.403-   2 2.75   4 2.75   7 2.75  15 2.75  23 2.75  24 2.75  20 2.75  19 2.75

   4  0.125  0.875  0.403-   3 2.75   8 2.75   1 2.75  16 2.75  21 2.75  20 2.75  24 2.75  17 2.76

   5  0.375  0.125  0.403-   1 2.75   6 2.75   9 2.75   8 2.75  22 2.75  25 2.75  26 2.76  21 2.76

   6  0.375  0.375  0.403-   2 2.75   5 2.75   7 2.75  10 2.75  22 2.75  27 2.75  23 2.76  26 2.76

   7  0.375  0.625  0.403-   3 2.75   6 2.75   8 2.75  11 2.75  27 2.75  23 2.75  24 2.75  28 2.76

   8  0.375  0.875  0.403-   4 2.75   7 2.75  12 2.75   5 2.75  21 2.76  25 2.76  24 2.76  28 2.76

   9  0.625  0.125  0.403-   5 2.75  10 2.75  13 2.75  12 2.75  25 2.75  26 2.75  30 2.75  29 2.76

  10  0.625  0.375  0.403-   6 2.75   9 2.75  11 2.75  14 2.75  27 2.75  26 2.75  30 2.75  31 2.76

  11  0.625  0.625  0.403-   7 2.75  10 2.75  12 2.75  15 2.75  27 2.75  28 2.75  32 2.75  31 2.76

  12  0.625  0.875  0.403-   8 2.75  11 2.75  16 2.75   9 2.75  25 2.75  28 2.75  32 2.75  29 2.76

  13  0.875  0.125  0.403-   9 2.75  14 2.75   1 2.75  16 2.75  30 2.75  29 2.75  17 2.75  18 2.76

  14  0.875  0.375  0.403-  10 2.75  13 2.75  15 2.75   2 2.75  31 2.76  30 2.76  19 2.76  18 2.76

  15  0.875  0.625  0.403-  11 2.75  14 2.75  16 2.75   3 2.75  32 2.75  31 2.75  19 2.75  20 2.76

  16  0.875  0.875  0.403-  12 2.75  15 2.75  13 2.75   4 2.75  32 2.75  20 2.76  17 2.76  29 2.76

  17  1.000  0.000  0.468-  18 2.74  21 2.74  48 2.74  29 2.74  20 2.75  36 2.75  13 2.75   1 2.75
                            16 2.76   4 2.76  45 2.77  33 2.77
  18  1.000  0.250  0.468-  17 2.74  30 2.74  22 2.74  34 2.75  19 2.75  45 2.75  46 2.75  13 2.76
                             1 2.76  14 2.76  33 2.76   2 2.76
  19  0.000  0.500  0.468-  23 2.74  47 2.74  20 2.74  31 2.74  34 2.75  18 2.75   3 2.75  15 2.75
                             2 2.76  14 2.76  35 2.76  46 2.77
  20  0.000  0.750  0.468-  24 2.74  19 2.74  48 2.75  47 2.75  32 2.75  17 2.75  36 2.75   3 2.75
                             4 2.75  15 2.76  16 2.76  35 2.78
  21  0.250  1.000  0.468-  37 2.74  17 2.74  22 2.74  24 2.75  36 2.75  40 2.75   4 2.75   1 2.75
                            25 2.75   8 2.76   5 2.76  33 2.76
  22  0.250  0.250  0.468-  38 2.73  21 2.74  18 2.74   1 2.75  33 2.75   2 2.75  37 2.75  23 2.75
                             5 2.75   6 2.75  26 2.75  34 2.75
  23  0.250  0.500  0.468-  38 2.72  24 2.74  19 2.74  35 2.75   3 2.75  22 2.75  34 2.75  27 2.75
                             7 2.75  39 2.75   2 2.75   6 2.76
  24  0.250  0.750  0.468-  23 2.74  20 2.74  21 2.75  39 2.75  36 2.75  40 2.75  28 2.75   3 2.75
                             4 2.75   7 2.75   8 2.76  35 2.76
  25  0.500  0.000  0.468-  37 2.74  29 2.74  26 2.74  28 2.75  44 2.75   9 2.75  12 2.75  40 2.75
                            21 2.75   5 2.75   8 2.76  41 2.78
  26  0.501  0.250  0.468-  38 2.73  30 2.74  25 2.74   9 2.75  27 2.75  37 2.75  10 2.75  41 2.75
                            22 2.75   5 2.76  42 2.76   6 2.76
  27  0.500  0.500  0.468-  38 2.72  28 2.74  31 2.74  43 2.75  11 2.75  26 2.75  10 2.75   7 2.75
                            23 2.75   6 2.75  39 2.76  42 2.76
  28  0.500  0.750  0.468-  27 2.74  32 2.74  25 2.75  39 2.75  40 2.75  44 2.75  24 2.75  11 2.75
                            12 2.75   7 2.76   8 2.76  43 2.76
  29  0.750  0.000  0.468-  30 2.74  25 2.74  17 2.74  48 2.75  44 2.75  32 2.75  13 2.75   9 2.76
                            45 2.76  16 2.76  12 2.76  41 2.78
  30  0.750  0.250  0.468-  29 2.74  26 2.74  42 2.74  18 2.74  45 2.75  31 2.75   9 2.75  13 2.75
                            46 2.75  10 2.75  14 2.76  41 2.76
  31  0.750  0.500  0.468-  42 2.74  27 2.74  19 2.74  32 2.74  47 2.75  30 2.75  15 2.75  14 2.76
                            11 2.76  10 2.76  46 2.76  43 2.76
  32  0.750  0.750  0.468-  28 2.74  31 2.74  20 2.75  29 2.75  48 2.75  44 2.75  47 2.75  15 2.75
                            16 2.75  11 2.75  12 2.75  43 2.77
  33  0.126  0.126  0.534-  37 2.73  34 2.73  50 2.74  53 2.75  22 2.75  49 2.76  18 2.76  21 2.76
                            36 2.76  45 2.77  17 2.77  54 2.78
  34  0.125  0.375  0.533-  35 2.73  33 2.73  19 2.75  50 2.75  18 2.75  46 2.75  38 2.75  23 2.75
                            22 2.75  51 2.76  54 2.80  55 2.80
  35  0.127  0.624  0.534-  34 2.73  39 2.73  51 2.74  56 2.74  23 2.75  52 2.75  47 2.76  36 2.76
                            24 2.76  19 2.76  20 2.78  55 2.78
  36  0.125  0.875  0.533-  40 2.74  48 2.74  21 2.75  24 2.75  20 2.75  52 2.75  17 2.75  49 2.75
                            53 2.75  56 2.76  33 2.76  35 2.76
  37  0.375  0.124  0.533-  33 2.73  40 2.74  21 2.74  25 2.74  41 2.74  26 2.75  22 2.75  53 2.76
                            38 2.76  57 2.76  58 2.77  54 2.81
  38  0.375  0.375  0.531-  23 2.72  27 2.72  26 2.73  22 2.73  39 2.75  34 2.75  37 2.76  42 2.76
                            58 2.79  55 2.82  59 2.82  54 2.82
  39  0.375  0.626  0.533-  35 2.73  43 2.73  40 2.74  38 2.75  28 2.75  24 2.75  23 2.75  27 2.76
                            56 2.76  60 2.76  59 2.80  55 2.80
  40  0.375  0.875  0.533-  37 2.74  39 2.74  44 2.74  36 2.74  28 2.75  24 2.75  21 2.75  25 2.75
                            53 2.75  60 2.76  56 2.76  57 2.76
  41  0.625  0.127  0.534-  42 2.72  45 2.74  37 2.74  57 2.75  61 2.75  58 2.75  26 2.75  30 2.76
                            44 2.77  25 2.78  29 2.78  62 2.81
  42  0.627  0.375  0.533-  41 2.72  46 2.72  43 2.74  30 2.74  31 2.74  63 2.75  26 2.76  38 2.76
                            27 2.76  58 2.78  59 2.80  62 2.82
  43  0.624  0.624  0.533-  39 2.73  63 2.74  42 2.74  27 2.75  60 2.75  28 2.76  64 2.76  44 2.76
                            31 2.76  47 2.76  59 2.77  32 2.77
  44  0.625  0.875  0.533-  61 2.74  40 2.74  25 2.75  29 2.75  28 2.75  32 2.75  48 2.75  64 2.75
                            60 2.76  57 2.76  43 2.76  41 2.77
  45  0.874  0.126  0.533-  46 2.72  41 2.74  61 2.74  30 2.75  18 2.75  50 2.75  48 2.76  49 2.76
                            29 2.76  17 2.77  33 2.77  62 2.79
  46  0.874  0.374  0.533-  42 2.72  45 2.72  63 2.75  34 2.75  18 2.75  30 2.75  50 2.75  47 2.76
                            31 2.76  51 2.76  19 2.77  62 2.79
  47  0.875  0.625  0.533-  19 2.74  63 2.74  20 2.75  48 2.75  31 2.75  32 2.75  52 2.75  46 2.76
                            64 2.76  35 2.76  51 2.76  43 2.76
  48  0.875  0.875  0.533-  17 2.74  36 2.74  61 2.74  20 2.75  29 2.75  47 2.75  32 2.75  44 2.75
                            52 2.75  49 2.76  45 2.76  64 2.76
  49  0.000  1.000  0.598-  52 2.74  50 2.75  61 2.75  53 2.75  36 2.75  33 2.76  48 2.76  45 2.76

  50  0.002  0.250  0.598-  33 2.74  54 2.74  62 2.74  34 2.75  49 2.75  51 2.75  45 2.75  46 2.75

  51  0.000  0.500  0.598-  35 2.74  63 2.74  52 2.75  50 2.75  34 2.76  55 2.76  47 2.76  46 2.76

  52  0.000  0.750  0.598-  49 2.74  64 2.74  51 2.75  56 2.75  36 2.75  48 2.75  47 2.75  35 2.75

  53  0.250  1.000  0.598-  56 2.74  57 2.74  33 2.75  49 2.75  36 2.75  40 2.75  37 2.76  54 2.76

  54  0.251  0.251  0.600-  65 2.21  58 2.71  55 2.73  50 2.74  53 2.76  33 2.78  34 2.80  37 2.81
                            38 2.82
  55  0.251  0.499  0.600-  65 2.21  54 2.73  59 2.73  51 2.76  56 2.76  35 2.78  39 2.80  34 2.80
                            38 2.82
  56  0.250  0.750  0.598-  53 2.74  60 2.74  35 2.74  52 2.75  36 2.76  39 2.76  40 2.76  55 2.76

  57  0.500  1.000  0.598-  60 2.74  61 2.74  53 2.74  41 2.75  58 2.76  44 2.76  40 2.76  37 2.76

  58  0.498  0.251  0.599-  65 2.16  54 2.71  59 2.73  41 2.75  57 2.76  37 2.77  42 2.78  38 2.79
                            62 2.80
  59  0.500  0.499  0.600-  65 2.17  55 2.73  58 2.73  63 2.75  60 2.76  43 2.77  42 2.80  39 2.80
                            38 2.82
  60  0.500  0.750  0.598-  57 2.74  56 2.74  64 2.75  43 2.75  44 2.76  40 2.76  39 2.76  59 2.76

  61  0.750  0.999  0.598-  64 2.73  44 2.74  57 2.74  45 2.74  48 2.74  49 2.75  41 2.75  62 2.77

  62  0.752  0.251  0.601-  67 2.36  50 2.74  63 2.76  61 2.77  46 2.79  45 2.79  58 2.80  41 2.81
                            42 2.82
  63  0.750  0.501  0.598-  64 2.73  43 2.74  51 2.74  47 2.74  46 2.75  42 2.75  59 2.75  62 2.76

  64  0.750  0.750  0.598-  61 2.73  63 2.73  52 2.74  60 2.75  44 2.75  47 2.76  43 2.76  48 2.76

  65  0.379  0.374  0.634-  66 1.23  58 2.16  59 2.17  54 2.21  55 2.21
  66  0.384  0.373  0.675-  65 1.23
  67  0.708  0.249  0.678-  68 0.98  69 0.98  62 2.36
  68  0.665  0.171  0.681-  67 0.98
  69  0.644  0.311  0.682-  67 0.98
 
  LATTYP: Found a simple tetragonal cell.
 ALAT       =    10.9820000000
 C/A-ratio  =     2.7317428519
  
  Lattice vectors:
  
 A1 = (  10.9820000000,   0.0000000000,   0.0000000000)
 A2 = (   0.0000000000,  10.9820000000,   0.0000000000)
 A3 = (   0.0000000000,   0.0000000000,  30.0000000000)


Analysis of symmetry for initial positions (statically):
=====================================================================
 Subroutine PRICEL returns:
 Original cell was already a primitive cell.
 

 Routine SETGRP: Setting up the symmetry group for a 
 simple tetragonal supercell.


 Subroutine GETGRP returns: Found  1 space group operations
 (whereof  1 operations were pure point group operations)
 out of a pool of 16 trial point group operations.


The static configuration has the point symmetry C_1 .


Analysis of symmetry for dynamics (positions and initial velocities):
=====================================================================
 Subroutine PRICEL returns:
 Original cell was already a primitive cell.
 

 Routine SETGRP: Setting up the symmetry group for a 
 simple tetragonal supercell.


 Subroutine GETGRP returns: Found  1 space group operations
 (whereof  1 operations were pure point group operations)
 out of a pool of 16 trial point group operations.


The dynamic configuration has the point symmetry C_1 .


Analysis of constrained symmetry for selective dynamics:
=====================================================================
 Subroutine PRICEL returns:
 Original cell was already a primitive cell.
 

 Routine SETGRP: Setting up the symmetry group for a 
 simple tetragonal supercell.


 Subroutine GETGRP returns: Found  1 space group operations
 (whereof  1 operations were pure point group operations)
 out of a pool of 16 trial point group operations.


The constrained configuration has the point symmetry C_1 .


Analysis of structural, dynamic, and magnetic symmetry:
=====================================================================
 Subroutine PRICEL returns:
 Original cell was already a primitive cell.
 

 Routine SETGRP: Setting up the symmetry group for a 
 simple tetragonal supercell.


 Subroutine GETGRP returns: Found  1 space group operations
 (whereof  1 operations were pure point group operations)
 out of a pool of 16 trial point group operations.


The magnetic configuration has the point symmetry C_1 .


 Subroutine INISYM returns: Found  1 space group operations
 (whereof  1 operations are pure point group operations),
 and found     1 'primitive' translations

 
 
 KPOINTS: K-Point Grid                            

Automatic generation of k-mesh.
Space group operators:
 irot       det(A)        alpha          n_x          n_y          n_z        tau_x        tau_y        tau_z
    1     1.000000     0.000001     1.000000     0.000000     0.000000     0.000000     0.000000     0.000000
 
 Subroutine IBZKPT returns following result:
 ===========================================
 
 Found      8 irreducible k-points:
 
 Following reciprocal coordinates:
            Coordinates               Weight
  0.125000  0.125000  0.000000      2.000000
  0.375000  0.125000  0.000000      2.000000
 -0.375000  0.125000  0.000000      2.000000
 -0.125000  0.125000  0.000000      2.000000
  0.125000  0.375000  0.000000      2.000000
  0.375000  0.375000  0.000000      2.000000
 -0.375000  0.375000  0.000000      2.000000
 -0.125000  0.375000  0.000000      2.000000
 
 Following cartesian coordinates:
            Coordinates               Weight
  0.011382  0.011382  0.000000      2.000000
  0.034147  0.011382  0.000000      2.000000
 -0.034147  0.011382  0.000000      2.000000
 -0.011382  0.011382  0.000000      2.000000
  0.011382  0.034147  0.000000      2.000000
  0.034147  0.034147  0.000000      2.000000
 -0.034147  0.034147  0.000000      2.000000
 -0.011382  0.034147  0.000000      2.000000
 


--------------------------------------------------------------------------------------------------------




 Dimension of arrays:
   k-points           NKPTS =      8   k-points in BZ     NKDIM =      8   number of bands    NBANDS=    432
   number of dos      NEDOS =   1200   number of ions     NIONS =     69
   non local maximal  LDIM  =      6   non local SUM 2l+1 LMDIM =     18
   total plane-waves  NPLWV = ******
   max r-space proj   IRMAX =   5807   max aug-charges    IRDMAX=  13820
   dimension x,y,z NGX =    72 NGY =   72 NGZ =  196
   dimension x,y,z NGXF=   144 NGYF=  144 NGZF=  392
   support grid    NGXF=   144 NGYF=  144 NGZF=  392
   ions per type =              64   1   2   2
   NGX,Y,Z   is equivalent  to a cutoff of  10.90, 10.90, 10.86 a.u.
   NGXF,Y,Z  is equivalent  to a cutoff of  21.80, 21.80, 21.72 a.u.

 SYSTEM =  Pd_100_surface                          
 POSCAR =  Pd N O H                                

 Startparameter for this run:
   NWRITE =      2    write-flag & timer
   PREC   = accura    normal or accurate (medium, high low for compatibility)
   ISTART =      0    job   : 0-new  1-cont  2-samecut
   ICHARG =      2    charge: 1-file 2-atom 10-const
   ISPIN  =      2    spin polarized calculation?
   LNONCOLLINEAR =      F non collinear calculations
   LSORBIT =      F    spin-orbit coupling
   INIWAV =      1    electr: 0-lowe 1-rand  2-diag
   LASPH  =      F    aspherical Exc in radial PAW
   METAGGA=      F    non-selfconsistent MetaGGA calc.

 Electronic Relaxation 1
   ENCUT  =  400.0 eV  29.40 Ry    5.42 a.u.  17.91 17.91 48.92*2*pi/ulx,y,z
   ENINI  =  400.0     initial cutoff
   ENAUG  =  627.1 eV  augmentation charge cutoff
   NELM   =    100;   NELMIN=  2; NELMDL=  0     # of ELM steps 
   EDIFF  = 0.1E-04   stopping-criterion for ELM
   LREAL  =      T    real-space projection
   NLSPLINE    = F    spline interpolate recip. space projectors
   LCOMPAT=      F    compatible to vasp.4.4
   GGA_COMPAT  = T    GGA compatible to vasp.4.4-vasp.4.6
   LMAXPAW     = -100 max onsite density
   LMAXMIX     =    2 max onsite mixed and CHGCAR
   VOSKOWN=      0    Vosko Wilk Nusair interpolation
   ROPT   =   -0.00025  -0.00025  -0.00025  -0.00025
 Ionic relaxation
   EDIFFG = -.2E-01   stopping-criterion for IOM
   NSW    =    300    number of steps for IOM
   NBLOCK =      1;   KBLOCK =    300    inner block; outer block 
   IBRION =      2    ionic relax: 0-MD 1-quasi-New 2-CG
   NFREE  =      1    steps in history (QN), initial steepest desc. (CG)
   ISIF   =      2    stress and relaxation
   IWAVPR =     11    prediction:  0-non 1-charg 2-wave 3-comb
   ISYM   =      2    0-nonsym 1-usesym 2-fastsym
   LCORR  =      T    Harris-Foulkes like correction to forces

   POTIM  = 0.5000    time-step for ionic-motion
   TEIN   =    0.0    initial temperature
   TEBEG  =    0.0;   TEEND  =   0.0 temperature during run
   SMASS  =  -3.00    Nose mass-parameter (am)
   estimated Nose-frequenzy (Omega)   =  0.10E-29 period in steps =****** mass=  -0.276E-26a.u.
   SCALEE = 1.0000    scale energy and forces
   NPACO  =    256;   APACO  = 16.0  distance and # of slots for P.C.
   PSTRESS=    0.0 pullay stress

  Mass of Ions in am
   POMASS = 106.42 14.00 16.00  1.00
  Ionic Valenz
   ZVAL   =  10.00  5.00  6.00  1.00
  Atomic Wigner-Seitz radii
   RWIGS  =  -1.00 -1.00 -1.00 -1.00
  virtual crystal weights 
   VCA    =   1.00  1.00  1.00  1.00
   NELECT =     659.0000    total number of electrons
   NUPDOWN=      -1.0000    fix difference up-down

 DOS related values:
   EMIN   =  10.00;   EMAX   =-10.00  energy-range for DOS
   EFERMI =   0.00
   ISMEAR =     1;   SIGMA  =   0.20  broadening in eV -4-tet -1-fermi 0-gaus

 Electronic relaxation 2 (details)
   IALGO  =     68    algorithm
   LDIAG  =      T    sub-space diagonalisation (order eigenvalues)
   LSUBROT=      F    optimize rotation matrix (better conditioning)
   TURBO    =      0    0=normal 1=particle mesh
   IRESTART =      0    0=no restart 2=restart with 2 vectors
   NREBOOT  =      0    no. of reboots
   NMIN     =      0    reboot dimension
   EREF     =   0.00    reference energy to select bands
   IMIX   =      4    mixing-type and parameters
     AMIX     =   0.40;   BMIX     =  1.00
     AMIX_MAG =   1.60;   BMIX_MAG =  1.00
     AMIN     =   0.10
     WC   =   100.;   INIMIX=   1;  MIXPRE=   1;  MAXMIX= -45

 Intra band minimization:
   WEIMIN = 0.0010     energy-eigenvalue tresh-hold
   EBREAK =  0.58E-08  absolut break condition
   DEPER  =   0.30     relativ break condition  

   TIME   =   0.40     timestep for ELM

  volume/ion in A,a.u.               =      52.44       353.86
  Fermi-wavevector in a.u.,A,eV,Ry     =   0.927987  1.753641 11.716793  0.861160
  Thomas-Fermi vector in A             =   2.054115
 
 Write flags
   LWAVE        =      F    write WAVECAR
   LDOWNSAMPLE  =      F    k-point downsampling of WAVECAR
   LCHARG       =      F    write CHGCAR
   LVTOT        =      F    write LOCPOT, total local potential
   LVHAR        =      F    write LOCPOT, Hartree potential only
   LELF         =      F    write electronic localiz. function (ELF)
   LORBIT       =     11    0 simple, 1 ext, 2 COOP (PROOUT), +10 PAW based schemes


 Dipole corrections
   LMONO  =      F    monopole corrections only (constant potential shift)
   LDIPOL =      T    correct potential (dipole corrections)
   IDIPOL =      3    1-x, 2-y, 3-z, 4-all directions 
   EPSILON=  1.0000000 bulk dielectric constant

 Exchange correlation treatment:
   GGA     =    --    GGA type
   LEXCH   =     8    internal setting for exchange type
   VOSKOWN=      0    Vosko Wilk Nusair interpolation
   LHFCALC =     F    Hartree Fock is set to
   LHFONE  =     F    Hartree Fock one center treatment
   AEXX    =    0.0000 exact exchange contribution

 Linear response parameters
   LEPSILON=     F    determine dielectric tensor
   LRPA    =     F    only Hartree local field effects (RPA)
   LNABLA  =     F    use nabla operator in PAW spheres
   LVEL    =     F    velocity operator in full k-point grid
   LINTERFAST=   F  fast interpolation
   KINTER  =     0    interpolate to denser k-point grid
   CSHIFT  =0.1000    complex shift for real part using Kramers Kronig
   OMEGAMAX=  -1.0    maximum frequency
   DEG_THRESHOLD= 0.2000000E-02 threshold for treating states as degnerate
   RTIME   =   -0.100 relaxation time in fs
  (WPLASMAI=    0.000 imaginary part of plasma frequency in eV, 0.658/RTIME)
   DFIELD  = 0.0000000 0.0000000 0.0000000 field for delta impulse in time
 
 Orbital magnetization related:
   ORBITALMAG=     F  switch on orbital magnetization
   LCHIMAG   =     F  perturbation theory with respect to B field
   DQ        =  0.001000  dq finite difference perturbation B field
   LLRAUG    =     F  two centre corrections for induced B field



--------------------------------------------------------------------------------------------------------


 conjugate gradient relaxation of ions
   using selective dynamics as specified on POSCAR
 charge density and potential will be updated during run
 spin polarized calculation
 RMM-DIIS sequential band-by-band and
  variant of blocked Davidson during initial phase
 perform sub-space diagonalisation
    before iterative eigenvector-optimisation
 modified Broyden-mixing scheme, WC =      100.0
 initial mixing is a Kerker type mixing with AMIX =  0.4000 and BMIX =      1.0000
 Hartree-type preconditioning will be used
 using additional bands          102
 real space projection scheme for non local part
 use partial core corrections
 calculate Harris-corrections to forces 
   (improved forces if not selfconsistent)
 use gradient corrections 
 use of overlap-Matrix (Vanderbilt PP)
 Methfessel and Paxton  Order N= 1 SIGMA  =   0.20


--------------------------------------------------------------------------------------------------------


  energy-cutoff  :      400.00
  volume of cell :     3618.13
      direct lattice vectors                 reciprocal lattice vectors
    10.982000000  0.000000000  0.000000000     0.091058095  0.000000000  0.000000000
     0.000000000 10.982000000  0.000000000     0.000000000  0.091058095  0.000000000
     0.000000000  0.000000000 30.000000000     0.000000000  0.000000000  0.033333333

  length of vectors
    10.982000000 10.982000000 30.000000000     0.091058095  0.091058095  0.033333333


 
 k-points in units of 2pi/SCALE and weight: K-Point Grid                            
   0.01138226  0.01138226  0.00000000       0.125
   0.03414679  0.01138226  0.00000000       0.125
  -0.03414679  0.01138226  0.00000000       0.125
  -0.01138226  0.01138226  0.00000000       0.125
   0.01138226  0.03414679  0.00000000       0.125
   0.03414679  0.03414679  0.00000000       0.125
  -0.03414679  0.03414679  0.00000000       0.125
  -0.01138226  0.03414679  0.00000000       0.125
 
 k-points in reciprocal lattice and weights: K-Point Grid                            
   0.12500000  0.12500000  0.00000000       0.125
   0.37500000  0.12500000  0.00000000       0.125
  -0.37500000  0.12500000  0.00000000       0.125
  -0.12500000  0.12500000  0.00000000       0.125
   0.12500000  0.37500000  0.00000000       0.125
   0.37500000  0.37500000  0.00000000       0.125
  -0.37500000  0.37500000  0.00000000       0.125
  -0.12500000  0.37500000  0.00000000       0.125
 
 position of ions in fractional coordinates (direct lattice) 
   0.12499955  0.12499955  0.40293227
   0.12499955  0.37499864  0.40293227
   0.12499955  0.62499774  0.40293227
   0.12499955  0.87499683  0.40293227
   0.37499864  0.12499955  0.40293227
   0.37499864  0.37499864  0.40293227
   0.37499864  0.62499774  0.40293227
   0.37499864  0.87499683  0.40293227
   0.62499774  0.12499955  0.40293227
   0.62499774  0.37499864  0.40293227
   0.62499774  0.62499774  0.40293227
   0.62499774  0.87499683  0.40293227
   0.87499683  0.12499955  0.40293227
   0.87499683  0.37499864  0.40293227
   0.87499683  0.62499774  0.40293227
   0.87499683  0.87499683  0.40293227
   0.99997985  0.00023933  0.46813482
   0.99980207  0.24972398  0.46822511
   0.00006637  0.50016465  0.46811174
   0.00024735  0.74998936  0.46806841
   0.24965723  0.99998865  0.46802724
   0.24973134  0.24985949  0.46789358
   0.24970750  0.50035589  0.46799570
   0.24975308  0.74983066  0.46803490
   0.50045574  0.00007103  0.46798273
   0.50050698  0.24982013  0.46802754
   0.50027338  0.50025410  0.46789099
   0.50025957  0.74993727  0.46806123
   0.75011586  0.00026324  0.46816062
   0.74992720  0.24963104  0.46800948
   0.75012394  0.50004296  0.46811409
   0.75006144  0.74998882  0.46800773
   0.12635068  0.12613405  0.53350661
   0.12465735  0.37512922  0.53292209
   0.12656347  0.62358034  0.53370147
   0.12532656  0.87491343  0.53300265
   0.37489523  0.12407506  0.53261608
   0.37491318  0.37543696  0.53146570
   0.37502357  0.62550530  0.53294551
   0.37517521  0.87492549  0.53285133
   0.62451029  0.12698223  0.53388013
   0.62652051  0.37468689  0.53299856
   0.62373004  0.62387278  0.53341868
   0.62501607  0.87508836  0.53289691
   0.87414585  0.12612584  0.53344857
   0.87441769  0.37406852  0.53336299
   0.87549757  0.62504863  0.53285847
   0.87545064  0.87515418  0.53278309
   0.00023018  0.99994897  0.59808303
   0.00176401  0.24999858  0.59814832
   0.00029173  0.50016603  0.59834227
   0.00001024  0.75028121  0.59800245
   0.25048823  0.99971744  0.59813453
   0.25103984  0.25074825  0.60008284
   0.25149369  0.49892393  0.60023101
   0.25023138  0.75021958  0.59828750
   0.50042663  0.99982734  0.59828946
   0.49780772  0.25076531  0.59873593
   0.50000496  0.49940045  0.59990767
   0.50009914  0.75041581  0.59819539
   0.75010690  0.99885543  0.59768828
   0.75240653  0.25061850  0.60129179
   0.75048449  0.50136151  0.59782252
   0.75016338  0.75016241  0.59798837
   0.37937777  0.37430885  0.63441068
   0.38423669  0.37274691  0.67535931
   0.70785314  0.24877643  0.67821802
   0.66535035  0.17100710  0.68110109
   0.64445039  0.31066319  0.68165036
 
 position of ions in cartesian coordinates  (Angst):
   1.37274503  1.37274503 12.08796804
   1.37274503  4.11823509 12.08796804
   1.37274503  6.86372514 12.08796804
   1.37274503  9.60921520 12.08796804
   4.11823509  1.37274503 12.08796804
   4.11823509  4.11823509 12.08796804
   4.11823509  6.86372514 12.08796804
   4.11823509  9.60921520 12.08796804
   6.86372514  1.37274503 12.08796804
   6.86372514  4.11823509 12.08796804
   6.86372514  6.86372514 12.08796804
   6.86372514  9.60921520 12.08796804
   9.60921520  1.37274503 12.08796804
   9.60921520  4.11823509 12.08796804
   9.60921520  6.86372514 12.08796804
   9.60921520  9.60921520 12.08796804
  10.98177869  0.00262833 14.04404474
  10.97982629  2.74246875 14.04675327
   0.00072888  5.49280816 14.04335215
   0.00271638  8.23638320 14.04205227
   2.74173570 10.98187533 14.04081707
   2.74254959  2.74395696 14.03680732
   2.74228775  5.49490843 14.03987088
   2.74278833  8.23464033 14.04104692
   5.49600494  0.00078000 14.03948188
   5.49656764  2.74352468 14.04082633
   5.49400226  5.49379051 14.03672975
   5.49385059  8.23581115 14.04183699
   8.23777239  0.00289087 14.04481851
   8.23570048  2.74144813 14.04028438
   8.23786106  5.49147180 14.04342276
   8.23717468  8.23637723 14.04023181
   1.38758322  1.38520417 16.00519838
   1.36898705  4.11966911 15.98766258
   1.38992005  6.84815928 16.01104415
   1.37633623  9.60829934 15.99007952
   4.11709940  1.36259231 15.97848238
   4.11729656  4.12304867 15.94397114
   4.11850888  6.86929918 15.98836530
   4.12017419  9.60843171 15.98553995
   6.85837201  1.39451882 16.01640385
   6.88044823  4.11481137 15.98995689
   6.84980327  6.85137085 16.00256051
   6.86392650  9.61022036 15.98690741
   9.59986975  1.38511395 16.00345718
   9.60285505  4.10802053 16.00088973
   9.61471435  6.86428409 15.98575395
   9.61419891  9.61094321 15.98349270
   0.00252778 10.98143958 17.94249094
   0.01937235  2.74548442 17.94444959
   0.00320373  5.49282337 17.95026817
   0.00011244  8.23958824 17.94007343
   2.75086178 10.97889697 17.94403592
   2.75691953  2.75371734 18.00248531
   2.76190369  5.47918260 18.00693025
   2.74804097  8.23891142 17.94862490
   5.49568526 10.98010379 17.94868393
   5.46692443  2.75390467 17.96207780
   5.49105452  5.48441578 17.99722996
   5.49208879  8.24106644 17.94586167
   8.23767398 10.96943031 17.93064833
   8.26292854  2.75229239 18.03875359
   8.24182071  5.50595215 17.93467560
   8.23829423  8.23828359 17.93965112
   4.16632670  4.11065980 19.03232044
   4.21968730  4.09350662 20.26077923
   7.77364321  2.73206272 20.34654071
   7.30687753  1.87799994 20.43303264
   7.07735424  3.41170310 20.44951082
 


--------------------------------------------------------------------------------------------------------


 k-point  1 :   0.1250 0.1250 0.0000  plane waves:   65671
 k-point  2 :   0.3750 0.1250 0.0000  plane waves:   65719
 k-point  3 :  -0.3750 0.1250 0.0000  plane waves:   65719
 k-point  4 :  -0.1250 0.1250 0.0000  plane waves:   65671
 k-point  5 :   0.1250 0.3750 0.0000  plane waves:   65719
 k-point  6 :   0.3750 0.3750 0.0000  plane waves:   65776
 k-point  7 :  -0.3750 0.3750 0.0000  plane waves:   65776
 k-point  8 :  -0.1250 0.3750 0.0000  plane waves:   65719

 maximum and minimum number of plane-waves per node :     65776    65671

 maximum number of plane-waves:     65776
 maximum index in each direction: 
   IXMAX=   18   IYMAX=   17   IZMAX=   48
   IXMIN=  -18   IYMIN=  -18   IZMIN=  -48


 serial   3D FFT for wavefunctions
 parallel 3D FFT for charge:
    minimum data exchange during FFTs selected (reduces bandwidth)


 total amount of memory used by VASP MPI-rank0   345530. kBytes
=======================================================================

   base      :      30000. kBytes
   nonlr-proj:      51371. kBytes
   fftplans  :       9850. kBytes
   grid      :      97777. kBytes
   one-center:       2146. kBytes
   wavefun   :     154386. kBytes
 
     INWAV:  cpu time    0.0001: real time    0.0003
 Broyden mixing: mesh for mixing (old mesh)
   NGX = 35   NGY = 35   NGZ = 97
  (NGX  =144   NGY  =144   NGZ  =392)
  gives a total of 118825 points

 initial charge density was supplied:
 charge density of overlapping atoms calculated
 number of electron     659.0000000 magnetization      69.0000000
 keeping initial charge density in first step


--------------------------------------------------------------------------------------------------------


 Maximum index for non-local projection operator         5578
 Maximum index for augmentation-charges          678 (set IRDMAX)


--------------------------------------------------------------------------------------------------------


 First call to EWALD:  gamma=   0.115
 Maximum number of real-space cells 4x 4x 2
 Maximum number of reciprocal cells 2x 2x 5

    FEWALD:  cpu time    0.1721: real time    0.1694


--------------------------------------- Iteration      1(   1)  ---------------------------------------


    POTLOK:  cpu time    0.3565: real time    0.7709
    SETDIJ:  cpu time    0.2404: real time    0.3327
     EDDAV:  cpu time   86.4183: real time   50.3160
       DOS:  cpu time    0.3014: real time    0.5655
    --------------------------------------------
      LOOP:  cpu time   87.3166: real time   51.9851

 eigenvalue-minimisations  : 13824
 total energy-change (2. order) : 0.3938120E+04  (-0.2461857E+05)
 number of electron     659.0000000 magnetization      69.0000000
 augmentation part      659.0000000 magnetization      69.0000000

 DIPCOR: dipole corrections for dipol
 direction  3 min pos     1,
 dipolmoment           0.000000      0.000000     -0.000123 electrons x Angstroem
 Tr[quadrupol]    -13703.531188

 energy correction for charged system         0.000000 eV
 dipol+quadrupol energy correction           -0.000000 eV
 added-field ion interaction          0.000665 eV  (added to PSCEN)


 Free energy of the ion-electron system (eV)
  ---------------------------------------------------
  alpha Z        PSCENC =       772.98725168
  Ewald energy   TEWEN  =    384931.04700928
  -Hartree energ DENC   =   -438294.44761546
  -exchange      EXHF   =         0.00000000
  -V(xc)+E(xc)   XCENC  =     -1797.96074609
  PAW double counting   =     52526.66438143   -48549.65235435
  entropy T*S    EENTRO =        -0.00699481
  eigenvalues    EBANDS =      1371.92125358
  atomic energy  EATOM  =     52977.56778489
  Solvation  Ediel_sol  =         0.00000000
  ---------------------------------------------------
  free energy    TOTEN  =      3938.11997014 eV

  energy without entropy =     3938.12696495  energy(sigma->0) =     3938.12230175


--------------------------------------------------------------------------------------------------------




--------------------------------------- Iteration      1(   2)  ---------------------------------------


     EDDAV:  cpu time   93.7508: real time   47.0331
       DOS:  cpu time    0.0051: real time    0.0025
    --------------------------------------------
      LOOP:  cpu time   93.7559: real time   47.0356

 eigenvalue-minimisations  : 15600
 total energy-change (2. order) :-0.4022184E+04  (-0.3714683E+04)
 number of electron     659.0000000 magnetization      69.0000000
 augmentation part      659.0000000 magnetization      69.0000000

 DIPCOR: dipole corrections for dipol
 direction  3 min pos     1,
 dipolmoment           0.000000      0.000000     -0.000123 electrons x Angstroem
 Tr[quadrupol]    -13703.531188

 energy correction for charged system         0.000000 eV
 dipol+quadrupol energy correction           -0.000000 eV
 added-field ion interaction          0.000665 eV  (added to PSCEN)


 Free energy of the ion-electron system (eV)
  ---------------------------------------------------
  alpha Z        PSCENC =       772.98725168
  Ewald energy   TEWEN  =    384931.04700928
  -Hartree energ DENC   =   -438294.44761546
  -exchange      EXHF   =         0.00000000
  -V(xc)+E(xc)   XCENC  =     -1797.96074609
  PAW double counting   =     52526.66438143   -48549.65235435
  entropy T*S    EENTRO =         0.00241080
  eigenvalues    EBANDS =     -2650.27236747
  atomic energy  EATOM  =     52977.56778489
  Solvation  Ediel_sol  =         0.00000000
  ---------------------------------------------------
  free energy    TOTEN  =       -84.06424529 eV

  energy without entropy =      -84.06665610  energy(sigma->0) =      -84.06504889


--------------------------------------------------------------------------------------------------------




--------------------------------------- Iteration      1(   3)  ---------------------------------------


     EDDAV:  cpu time   98.3226: real time   49.3069
       DOS:  cpu time    0.0054: real time    0.0027
    --------------------------------------------
      LOOP:  cpu time   98.3280: real time   49.3096

 eigenvalue-minimisations  : 16176
 total energy-change (2. order) :-0.2598142E+03  (-0.2374739E+03)
 number of electron     659.0000000 magnetization      69.0000000
 augmentation part      659.0000000 magnetization      69.0000000

 DIPCOR: dipole corrections for dipol
 direction  3 min pos     1,
 dipolmoment           0.000000      0.000000     -0.000123 electrons x Angstroem
 Tr[quadrupol]    -13703.531188

 energy correction for charged system         0.000000 eV
 dipol+quadrupol energy correction           -0.000000 eV
 added-field ion interaction          0.000665 eV  (added to PSCEN)


 Free energy of the ion-electron system (eV)
  ---------------------------------------------------
  alpha Z        PSCENC =       772.98725168
  Ewald energy   TEWEN  =    384931.04700928
  -Hartree energ DENC   =   -438294.44761546
  -exchange      EXHF   =         0.00000000
  -V(xc)+E(xc)   XCENC  =     -1797.96074609
  PAW double counting   =     52526.66438143   -48549.65235435
  entropy T*S    EENTRO =         0.16440071
  eigenvalues    EBANDS =     -2910.24856253
  atomic energy  EATOM  =     52977.56778489
  Solvation  Ediel_sol  =         0.00000000
  ---------------------------------------------------
  free energy    TOTEN  =      -343.87845044 eV

  energy without entropy =     -344.04285116  energy(sigma->0) =     -343.93325068


--------------------------------------------------------------------------------------------------------




--------------------------------------- Iteration      1(   4)  ---------------------------------------


     EDDAV:  cpu time   91.9355: real time   46.1130
       DOS:  cpu time    0.0052: real time    0.0026
    --------------------------------------------
      LOOP:  cpu time   91.9407: real time   46.1156

 eigenvalue-minimisations  : 15168
 total energy-change (2. order) :-0.6417930E+01  (-0.6357547E+01)
 number of electron     659.0000000 magnetization      69.0000000
 augmentation part      659.0000000 magnetization      69.0000000

 DIPCOR: dipole corrections for dipol
 direction  3 min pos     1,
 dipolmoment           0.000000      0.000000     -0.000123 electrons x Angstroem
 Tr[quadrupol]    -13703.531188

 energy correction for charged system         0.000000 eV
 dipol+quadrupol energy correction           -0.000000 eV
 added-field ion interaction          0.000665 eV  (added to PSCEN)


 Free energy of the ion-electron system (eV)
  ---------------------------------------------------
  alpha Z        PSCENC =       772.98725168
  Ewald energy   TEWEN  =    384931.04700928
  -Hartree energ DENC   =   -438294.44761546
  -exchange      EXHF   =         0.00000000
  -V(xc)+E(xc)   XCENC  =     -1797.96074609
  PAW double counting   =     52526.66438143   -48549.65235435
  entropy T*S    EENTRO =         0.17330867
  eigenvalues    EBANDS =     -2916.67540055
  atomic energy  EATOM  =     52977.56778489
  Solvation  Ediel_sol  =         0.00000000
  ---------------------------------------------------
  free energy    TOTEN  =      -350.29638050 eV

  energy without entropy =     -350.46968918  energy(sigma->0) =     -350.35415006


--------------------------------------------------------------------------------------------------------




--------------------------------------- Iteration      1(   5)  ---------------------------------------


     EDDAV:  cpu time  103.4589: real time   51.8811
       DOS:  cpu time    0.0052: real time    0.0026
    CHARGE:  cpu time    3.5211: real time    3.2692
    MIXING:  cpu time    0.0657: real time    0.0496
    --------------------------------------------
      LOOP:  cpu time  107.0511: real time   55.2025

 eigenvalue-minimisations  : 17568
 total energy-change (2. order) :-0.2323327E+00  (-0.2322729E+00)
 number of electron     658.9999463 magnetization      66.4909486
 augmentation part      261.1096083 magnetization      52.6355925

 DIPCOR: dipole corrections for dipol
 direction  3 min pos     1,
 dipolmoment           0.000000      0.000000     -0.000123 electrons x Angstroem
 Tr[quadrupol]    -13703.531188

 energy correction for charged system         0.000000 eV
 dipol+quadrupol energy correction           -0.000000 eV
 added-field ion interaction          0.000665 eV  (added to PSCEN)


 Broyden mixing:
  rms(total) = 0.59206E+01    rms(broyden)= 0.59198E+01
  rms(prec ) = 0.59771E+01
  weight for this iteration     100.00

 Free energy of the ion-electron system (eV)
  ---------------------------------------------------
  alpha Z        PSCENC =       772.98725168
  Ewald energy   TEWEN  =    384931.04700928
  -Hartree energ DENC   =   -438294.44761546
  -exchange      EXHF   =         0.00000000
  -V(xc)+E(xc)   XCENC  =     -1797.96074609
  PAW double counting   =     52526.66438143   -48549.65235435
  entropy T*S    EENTRO =         0.17341407
  eigenvalues    EBANDS =     -2916.90783862
  atomic energy  EATOM  =     52977.56778489
  Solvation  Ediel_sol  =         0.00000000
  ---------------------------------------------------
  free energy    TOTEN  =      -350.52871317 eV

  energy without entropy =     -350.70212724  energy(sigma->0) =     -350.58651786


--------------------------------------------------------------------------------------------------------




--------------------------------------- Iteration      1(   6)  ---------------------------------------


    POTLOK:  cpu time    0.3210: real time    0.2804
    SETDIJ:  cpu time    0.0288: real time    0.0179
    EDDIAG:  cpu time   16.3189: real time    8.2253
  RMM-DIIS:  cpu time   52.0275: real time   26.1950
    ORTHCH:  cpu time    2.7824: real time    1.3962
       DOS:  cpu time    0.0051: real time    0.0026
    CHARGE:  cpu time    3.4602: real time    3.1697
    MIXING:  cpu time    0.0288: real time    0.0224
    --------------------------------------------
      LOOP:  cpu time   74.9728: real time   39.3096

 eigenvalue-minimisations  : 13844
 total energy-change (2. order) : 0.3223293E+02  (-0.8129155E+01)
 number of electron     658.9999445 magnetization      63.5645807
 augmentation part      271.7922686 magnetization      48.2556347

 DIPCOR: dipole corrections for dipol
 direction  3 min pos     1,
 dipolmoment           0.000000      0.000000      0.011144 electrons x Angstroem
 Tr[quadrupol]    -13708.692010

 energy correction for charged system         0.000000 eV
 dipol+quadrupol energy correction           -0.000003 eV
 added-field ion interaction         -0.060057 eV  (added to PSCEN)


 Broyden mixing:
  rms(total) = 0.33732E+01    rms(broyden)= 0.33722E+01
  rms(prec ) = 0.34388E+01
  weight for this iteration     100.00

 eigenvalues of (default mixing * dielectric matrix)
  average eigenvalue GAMMA=   1.0001
  1.0001

 Free energy of the ion-electron system (eV)
  ---------------------------------------------------
  alpha Z        PSCENC =       772.92652601
  Ewald energy   TEWEN  =    384931.04700928
  -Hartree energ DENC   =   -438114.20607166
  -exchange      EXHF   =         0.00000000
  -V(xc)+E(xc)   XCENC  =     -1795.09475396
  PAW double counting   =     56415.57300532   -52515.22932370
  entropy T*S    EENTRO =         0.08164047
  eigenvalues    EBANDS =     -2990.96160206
  atomic energy  EATOM  =     52977.56778489
  Solvation  Ediel_sol  =         0.00000000
  ---------------------------------------------------
  free energy    TOTEN  =      -318.29578542 eV

  energy without entropy =     -318.37742589  energy(sigma->0) =     -318.32299891


--------------------------------------------------------------------------------------------------------




--------------------------------------- Iteration      1(   7)  ---------------------------------------


    POTLOK:  cpu time    0.4459: real time    0.2876
    SETDIJ:  cpu time    0.0295: real time    0.0184
    EDDIAG:  cpu time   16.2527: real time    8.1468
  RMM-DIIS:  cpu time   51.6788: real time   26.0055
    ORTHCH:  cpu time    2.7815: real time    1.3956
       DOS:  cpu time    0.0048: real time    0.0024
    CHARGE:  cpu time    3.5778: real time    3.2821
    MIXING:  cpu time    0.0146: real time    0.0073
    --------------------------------------------
      LOOP:  cpu time   74.7857: real time   39.1458

 eigenvalue-minimisations  : 13848
 total energy-change (2. order) :-0.1645473E+02  (-0.3559788E+01)
 number of electron     658.9999421 magnetization      62.1515670
 augmentation part      269.1650285 magnetization      48.9344851

 DIPCOR: dipole corrections for dipol
 direction  3 min pos     1,
 dipolmoment           0.000000      0.000000      0.593369 electrons x Angstroem
 Tr[quadrupol]    -13719.518947

 energy correction for charged system         0.000000 eV
 dipol+quadrupol energy correction           -0.008804 eV
 added-field ion interaction         -3.197712 eV  (added to PSCEN)


 Broyden mixing:
  rms(total) = 0.49484E+01    rms(broyden)= 0.49472E+01
  rms(prec ) = 0.59167E+01
  weight for this iteration     100.00

 eigenvalues of (default mixing * dielectric matrix)
  average eigenvalue GAMMA=   0.7796
  1.2175  0.3418

 Free energy of the ion-electron system (eV)
  ---------------------------------------------------
  alpha Z        PSCENC =       769.78007018
  Ewald energy   TEWEN  =    384931.04700928
  -Hartree energ DENC   =   -438528.21028552
  -exchange      EXHF   =         0.00000000
  -V(xc)+E(xc)   XCENC  =     -1792.52912049
  PAW double counting   =     59264.47307880   -55393.91700565
  entropy T*S    EENTRO =        -0.03695580
  eigenvalues    EBANDS =     -2562.92509197
  atomic energy  EATOM  =     52977.56778489
  Solvation  Ediel_sol  =         0.00000000
  ---------------------------------------------------
  free energy    TOTEN  =      -334.75051628 eV

  energy without entropy =     -334.71356048  energy(sigma->0) =     -334.73819768


--------------------------------------------------------------------------------------------------------




--------------------------------------- Iteration      1(   8)  ---------------------------------------


    POTLOK:  cpu time    0.4404: real time    0.2672
    SETDIJ:  cpu time    0.0285: real time    0.0179
    EDDIAG:  cpu time   16.2235: real time    8.1442
  RMM-DIIS:  cpu time   51.1162: real time   25.6230
    ORTHCH:  cpu time    2.7953: real time    1.4093
       DOS:  cpu time    0.0051: real time    0.0026
    CHARGE:  cpu time    3.4283: real time    3.1288
    MIXING:  cpu time    0.0124: real time    0.0062
    --------------------------------------------
      LOOP:  cpu time   74.0496: real time   38.5992

 eigenvalue-minimisations  : 13826
 total energy-change (2. order) :-0.8057341E+01  (-0.3588180E+01)
 number of electron     658.9999462 magnetization      60.2807013
 augmentation part      268.3743103 magnetization      44.6272519

 DIPCOR: dipole corrections for dipol
 direction  3 min pos     1,
 dipolmoment           0.000000      0.000000     -1.887581 electrons x Angstroem
 Tr[quadrupol]    -13720.927716

 energy correction for charged system         0.000000 eV
 dipol+quadrupol energy correction           -0.089096 eV
 added-field ion interaction         10.172316 eV  (added to PSCEN)


 Broyden mixing:
  rms(total) = 0.46061E+01    rms(broyden)= 0.46055E+01
  rms(prec ) = 0.60384E+01
  weight for this iteration     100.00

 eigenvalues of (default mixing * dielectric matrix)
  average eigenvalue GAMMA=   0.7780
  1.5874  0.6000  0.1465

 Free energy of the ion-electron system (eV)
  ---------------------------------------------------
  alpha Z        PSCENC =       783.06980612
  Ewald energy   TEWEN  =    384931.04700928
  -Hartree energ DENC   =   -438537.80126688
  -exchange      EXHF   =         0.00000000
  -V(xc)+E(xc)   XCENC  =     -1789.46907367
  PAW double counting   =     60147.55716792   -56289.03115196
  entropy T*S    EENTRO =        -0.10458401
  eigenvalues    EBANDS =     -2565.64354923
  atomic energy  EATOM  =     52977.56778489
  Solvation  Ediel_sol  =         0.00000000
  ---------------------------------------------------
  free energy    TOTEN  =      -342.80785755 eV

  energy without entropy =     -342.70327354  energy(sigma->0) =     -342.77299621


--------------------------------------------------------------------------------------------------------




--------------------------------------- Iteration      1(   9)  ---------------------------------------


    POTLOK:  cpu time    0.4798: real time    0.3052
    SETDIJ:  cpu time    0.0280: real time    0.0176
    EDDIAG:  cpu time   16.1967: real time    8.1189
  RMM-DIIS:  cpu time   51.8595: real time   26.2145
    ORTHCH:  cpu time    2.7816: real time    1.3955
       DOS:  cpu time    0.0052: real time    0.0026
    CHARGE:  cpu time    3.5941: real time    3.2977
    MIXING:  cpu time    0.0138: real time    0.0069
    --------------------------------------------
      LOOP:  cpu time   74.9585: real time   39.3589

 eigenvalue-minimisations  : 13846
 total energy-change (2. order) : 0.1783450E+02  (-0.2045216E+01)
 number of electron     658.9999413 magnetization      58.9401449
 augmentation part      270.9998552 magnetization      44.9274468

 DIPCOR: dipole corrections for dipol
 direction  3 min pos     1,
 dipolmoment           0.000000      0.000000      0.443617 electrons x Angstroem
 Tr[quadrupol]    -13721.470465

 energy correction for charged system         0.000000 eV
 dipol+quadrupol energy correction           -0.004921 eV
 added-field ion interaction         -2.390688 eV  (added to PSCEN)


 Broyden mixing:
  rms(total) = 0.49044E+01    rms(broyden)= 0.49033E+01
  rms(prec ) = 0.59634E+01
  weight for this iteration     100.00

 eigenvalues of (default mixing * dielectric matrix)
  average eigenvalue GAMMA=   0.7096
  1.8481  0.6836  0.2011  0.1054

 Free energy of the ion-electron system (eV)
  ---------------------------------------------------
  alpha Z        PSCENC =       770.59097721
  Ewald energy   TEWEN  =    384931.04700928
  -Hartree energ DENC   =   -438557.27329201
  -exchange      EXHF   =         0.00000000
  -V(xc)+E(xc)   XCENC  =     -1785.02453374
  PAW double counting   =     61087.78216933   -57244.85415919
  entropy T*S    EENTRO =        -0.02652507
  eigenvalues    EBANDS =     -2504.78278842
  atomic energy  EATOM  =     52977.56778489
  Solvation  Ediel_sol  =         0.00000000
  ---------------------------------------------------
  free energy    TOTEN  =      -324.97335772 eV

  energy without entropy =     -324.94683265  energy(sigma->0) =     -324.96451603


--------------------------------------------------------------------------------------------------------




--------------------------------------- Iteration      1(  10)  ---------------------------------------


    POTLOK:  cpu time    0.4762: real time    0.3045
    SETDIJ:  cpu time    0.0296: real time    0.0186
    EDDIAG:  cpu time   16.2863: real time    8.2091
  RMM-DIIS:  cpu time   51.7830: real time   26.0963
    ORTHCH:  cpu time    2.7731: real time    1.3913
       DOS:  cpu time    0.0051: real time    0.0025
    CHARGE:  cpu time    3.4026: real time    3.1123
    MIXING:  cpu time    0.0141: real time    0.0071
    --------------------------------------------
      LOOP:  cpu time   74.7700: real time   39.1417

 eigenvalue-minimisations  : 13852
 total energy-change (2. order) : 0.2595887E+02  (-0.9583377E+00)
 number of electron     658.9999437 magnetization      57.7228327
 augmentation part      272.4147347 magnetization      40.7108226

 DIPCOR: dipole corrections for dipol
 direction  3 min pos     1,
 dipolmoment           0.000000      0.000000     -0.236615 electrons x Angstroem
 Tr[quadrupol]    -13722.090013

 energy correction for charged system         0.000000 eV
 dipol+quadrupol energy correction           -0.001400 eV
 added-field ion interaction          1.275138 eV  (added to PSCEN)


 Broyden mixing:
  rms(total) = 0.22303E+01    rms(broyden)= 0.22297E+01
  rms(prec ) = 0.23830E+01
  weight for this iteration     100.00

 eigenvalues of (default mixing * dielectric matrix)
  average eigenvalue GAMMA=   0.6539
  1.9739  0.6957  0.2990  0.1925  0.1080

 Free energy of the ion-electron system (eV)
  ---------------------------------------------------
  alpha Z        PSCENC =       774.26032440
  Ewald energy   TEWEN  =    384931.04700928
  -Hartree energ DENC   =   -438573.66208945
  -exchange      EXHF   =         0.00000000
  -V(xc)+E(xc)   XCENC  =     -1782.10747372
  PAW double counting   =     61621.00967953   -57786.42230039
  entropy T*S    EENTRO =        -0.10453655
  eigenvalues    EBANDS =     -2460.60288912
  atomic energy  EATOM  =     52977.56778489
  Solvation  Ediel_sol  =         0.00000000
  ---------------------------------------------------
  free energy    TOTEN  =      -299.01449114 eV

  energy without entropy =     -298.90995459  energy(sigma->0) =     -298.97964562


--------------------------------------------------------------------------------------------------------




--------------------------------------- Iteration      1(  11)  ---------------------------------------


    POTLOK:  cpu time    0.4724: real time    0.3005
    SETDIJ:  cpu time    0.0287: real time    0.0182
    EDDIAG:  cpu time   16.1591: real time    8.1149
  RMM-DIIS:  cpu time   51.7709: real time   26.0370
    ORTHCH:  cpu time    2.7855: real time    1.3983
       DOS:  cpu time    0.0052: real time    0.0026
    CHARGE:  cpu time    3.4272: real time    3.1347
    MIXING:  cpu time    0.0151: real time    0.0075
    --------------------------------------------
      LOOP:  cpu time   74.6641: real time   39.0138

 eigenvalue-minimisations  : 13857
 total energy-change (2. order) : 0.4008713E+01  (-0.8778654E+00)
 number of electron     658.9999448 magnetization      55.7815683
 augmentation part      272.8272845 magnetization      39.5565218

 DIPCOR: dipole corrections for dipol
 direction  3 min pos     1,
 dipolmoment           0.000000      0.000000     -0.328819 electrons x Angstroem
 Tr[quadrupol]    -13721.550483

 energy correction for charged system         0.000000 eV
 dipol+quadrupol energy correction           -0.002704 eV
 added-field ion interaction          1.772031 eV  (added to PSCEN)


 Broyden mixing:
  rms(total) = 0.17984E+01    rms(broyden)= 0.17981E+01
  rms(prec ) = 0.19778E+01
  weight for this iteration     100.00

 eigenvalues of (default mixing * dielectric matrix)
  average eigenvalue GAMMA=   0.6467
  2.1066  0.7702  0.3637  0.3637  0.1678  0.1080

 Free energy of the ion-electron system (eV)
  ---------------------------------------------------
  alpha Z        PSCENC =       774.75591369
  Ewald energy   TEWEN  =    384931.04700928
  -Hartree energ DENC   =   -438552.30229864
  -exchange      EXHF   =         0.00000000
  -V(xc)+E(xc)   XCENC  =     -1781.89237722
  PAW double counting   =     61920.66328533   -58088.25811061
  entropy T*S    EENTRO =        -0.08273100
  eigenvalues    EBANDS =     -2476.50425428
  atomic energy  EATOM  =     52977.56778489
  Solvation  Ediel_sol  =         0.00000000
  ---------------------------------------------------
  free energy    TOTEN  =      -295.00577856 eV

  energy without entropy =     -294.92304756  energy(sigma->0) =     -294.97820156


--------------------------------------------------------------------------------------------------------




--------------------------------------- Iteration      1(  12)  ---------------------------------------


    POTLOK:  cpu time    0.4843: real time    0.3129
    SETDIJ:  cpu time    0.0293: real time    0.0182
    EDDIAG:  cpu time   16.3265: real time    8.1886
  RMM-DIIS:  cpu time   51.8003: real time   26.0693
    ORTHCH:  cpu time    2.7777: real time    1.3937
       DOS:  cpu time    0.0050: real time    0.0025
    CHARGE:  cpu time    3.3193: real time    3.0272
    MIXING:  cpu time    0.0144: real time    0.0072
    --------------------------------------------
      LOOP:  cpu time   74.7566: real time   39.0195

 eigenvalue-minimisations  : 13851
 total energy-change (2. order) :-0.6395093E-01  (-0.2692015E+00)
 number of electron     658.9999444 magnetization      54.8847232
 augmentation part      271.6754159 magnetization      38.2172061

 DIPCOR: dipole corrections for dipol
 direction  3 min pos     1,
 dipolmoment           0.000000      0.000000     -0.178368 electrons x Angstroem
 Tr[quadrupol]    -13724.261201

 energy correction for charged system         0.000000 eV
 dipol+quadrupol energy correction           -0.000796 eV
 added-field ion interaction          0.961237 eV  (added to PSCEN)


 Broyden mixing:
  rms(total) = 0.13643E+01    rms(broyden)= 0.13641E+01
  rms(prec ) = 0.14626E+01
  weight for this iteration     100.00

 eigenvalues of (default mixing * dielectric matrix)
  average eigenvalue GAMMA=   0.6135
  2.1017  0.7639  0.4630  0.4630  0.1088  0.2284  0.1654

 Free energy of the ion-electron system (eV)
  ---------------------------------------------------
  alpha Z        PSCENC =       773.94702722
  Ewald energy   TEWEN  =    384931.04700928
  -Hartree energ DENC   =   -438680.48289276
  -exchange      EXHF   =         0.00000000
  -V(xc)+E(xc)   XCENC  =     -1782.06319789
  PAW double counting   =     62296.60805043   -58465.21738542
  entropy T*S    EENTRO =        -0.02937124
  eigenvalues    EBANDS =     -2346.44675400
  atomic energy  EATOM  =     52977.56778489
  Solvation  Ediel_sol  =         0.00000000
  ---------------------------------------------------
  free energy    TOTEN  =      -295.06972949 eV

  energy without entropy =     -295.04035825  energy(sigma->0) =     -295.05993908


--------------------------------------------------------------------------------------------------------




--------------------------------------- Iteration      1(  13)  ---------------------------------------


    POTLOK:  cpu time    0.4767: real time    0.3044
    SETDIJ:  cpu time    0.0278: real time    0.0175
    EDDIAG:  cpu time   16.1866: real time    8.1138
  RMM-DIIS:  cpu time   52.0727: real time   26.3003
    ORTHCH:  cpu time    2.8010: real time    1.4054
       DOS:  cpu time    0.0052: real time    0.0026
    CHARGE:  cpu time    3.3828: real time    3.0921
    MIXING:  cpu time    0.0155: real time    0.0078
    --------------------------------------------
      LOOP:  cpu time   74.9683: real time   39.2438

 eigenvalue-minimisations  : 13867
 total energy-change (2. order) :-0.1813116E+01  (-0.1388373E+00)
 number of electron     658.9999443 magnetization      53.5771022
 augmentation part      271.4400019 magnetization      37.0545640

 DIPCOR: dipole corrections for dipol
 direction  3 min pos     1,
 dipolmoment           0.000000      0.000000     -0.113909 electrons x Angstroem
 Tr[quadrupol]    -13725.064489

 energy correction for charged system         0.000000 eV
 dipol+quadrupol energy correction           -0.000324 eV
 added-field ion interaction          0.613864 eV  (added to PSCEN)


 Broyden mixing:
  rms(total) = 0.11715E+01    rms(broyden)= 0.11714E+01
  rms(prec ) = 0.12884E+01
  weight for this iteration     100.00

 eigenvalues of (default mixing * dielectric matrix)
  average eigenvalue GAMMA=   0.6073
  2.0371  0.7340  0.7340  0.6100  0.1082  0.2555  0.1682  0.2111

 Free energy of the ion-electron system (eV)
  ---------------------------------------------------
  alpha Z        PSCENC =       773.60012594
  Ewald energy   TEWEN  =    384931.04700928
  -Hartree energ DENC   =   -438717.73213620
  -exchange      EXHF   =         0.00000000
  -V(xc)+E(xc)   XCENC  =     -1783.56940207
  PAW double counting   =     62337.26323599   -58505.12198551
  entropy T*S    EENTRO =        -0.02877936
  eigenvalues    EBANDS =     -2309.90869887
  atomic energy  EATOM  =     52977.56778489
  Solvation  Ediel_sol  =         0.00000000
  ---------------------------------------------------
  free energy    TOTEN  =      -296.88284591 eV

  energy without entropy =     -296.85406655  energy(sigma->0) =     -296.87325279


--------------------------------------------------------------------------------------------------------




--------------------------------------- Iteration      1(  14)  ---------------------------------------


    POTLOK:  cpu time    0.4753: real time    0.3036
    SETDIJ:  cpu time    0.0294: real time    0.0183
    EDDIAG:  cpu time   16.2386: real time    8.1426
  RMM-DIIS:  cpu time   52.0103: real time   26.2792
    ORTHCH:  cpu time    2.7793: real time    1.3944
       DOS:  cpu time    0.0051: real time    0.0025
    CHARGE:  cpu time    3.5372: real time    3.2447
    MIXING:  cpu time    0.0159: real time    0.0080
    --------------------------------------------
      LOOP:  cpu time   75.0911: real time   39.3933

 eigenvalue-minimisations  : 13864
 total energy-change (2. order) :-0.3611882E+01  (-0.1447581E+00)
 number of electron     658.9999446 magnetization      51.9633569
 augmentation part      271.4826676 magnetization      36.0495905

 DIPCOR: dipole corrections for dipol
 direction  3 min pos     1,
 dipolmoment           0.000000      0.000000     -0.084840 electrons x Angstroem
 Tr[quadrupol]    -13725.408252

 energy correction for charged system         0.000000 eV
 dipol+quadrupol energy correction           -0.000180 eV
 added-field ion interaction          0.457208 eV  (added to PSCEN)


 Broyden mixing:
  rms(total) = 0.11771E+01    rms(broyden)= 0.11770E+01
  rms(prec ) = 0.12819E+01
  weight for this iteration     100.00

 eigenvalues of (default mixing * dielectric matrix)
  average eigenvalue GAMMA=   0.6145
[...]
   -.737E+01 0.427E+01 0.980E+03   0.737E+01 -.430E+01 -.980E+03   -.341E-02 0.321E-01 -.596E-01   -.444E-02 -.459E-02 -.937E-01
   -.726E+01 -.797E+01 0.973E+03   0.728E+01 0.800E+01 -.973E+03   -.144E-01 -.309E-01 -.217E-01   -.731E-02 -.253E-02 -.949E-01
   -.326E+01 -.192E+01 0.965E+03   0.330E+01 0.195E+01 -.965E+03   -.390E-01 -.408E-01 0.221E-01   -.511E-02 0.110E-02 -.102E+00
   0.155E+02 0.239E+02 -.802E+03   -.153E+02 -.238E+02 0.802E+03   -.132E+00 -.141E+00 -.162E+00   0.557E-02 0.208E-02 -.960E-01
   0.216E+02 -.526E+01 -.773E+03   -.217E+02 0.527E+01 0.774E+03   0.133E+00 -.654E-02 0.135E+00   0.103E-01 0.123E-02 -.887E-01
   0.169E+02 -.226E+02 -.815E+03   -.168E+02 0.224E+02 0.815E+03   -.148E+00 0.153E+00 -.163E+00   0.116E-01 -.590E-02 -.960E-01
   0.777E+01 0.376E+01 -.809E+03   -.779E+01 -.375E+01 0.809E+03   0.987E-02 -.516E-02 0.630E-01   0.132E-01 -.220E-02 -.102E+00
   0.109E+02 0.322E+02 -.760E+03   -.109E+02 -.323E+02 0.760E+03   -.194E-01 0.123E+00 0.163E+00   0.238E-02 0.613E-02 -.911E-01
   0.113E+02 -.675E+01 -.683E+03   -.113E+02 0.677E+01 0.682E+03   -.622E-02 -.203E-01 0.132E+01   0.707E-02 0.574E-02 -.843E-01
   0.627E+01 -.301E+02 -.778E+03   -.628E+01 0.303E+02 0.778E+03   0.732E-02 -.121E+00 0.164E+00   -.556E-03 -.798E-02 -.877E-01
   0.555E+01 0.458E+01 -.798E+03   -.555E+01 -.459E+01 0.798E+03   0.301E-02 0.848E-02 0.636E-01   0.539E-03 -.322E-02 -.983E-01
   -.159E+02 0.288E+02 -.789E+03   0.158E+02 -.286E+02 0.789E+03   0.131E+00 -.195E+00 -.150E+00   -.566E-02 0.104E-01 -.953E-01
   -.218E+02 -.859E+01 -.752E+03   0.220E+02 0.856E+01 0.752E+03   -.163E+00 0.299E-01 0.212E+00   -.798E-02 -.194E-02 -.861E-01
   -.162E+02 -.279E+02 -.797E+03   0.161E+02 0.277E+02 0.797E+03   0.153E+00 0.165E+00 -.175E+00   -.139E-01 -.783E-02 -.954E-01
   -.675E+01 0.788E+01 -.795E+03   0.676E+01 -.788E+01 0.795E+03   -.404E-03 -.609E-02 0.612E-01   -.864E-02 0.252E-03 -.931E-01
   -.118E+02 0.191E+02 -.798E+03   0.116E+02 -.190E+02 0.799E+03   0.121E+00 -.133E+00 -.479E-01   -.788E-02 0.837E-02 -.102E+00
   -.125E+02 -.916E+01 -.791E+03   0.124E+02 0.902E+01 0.791E+03   0.136E+00 0.149E+00 -.716E-01   -.478E-02 -.360E-02 -.955E-01
   -.674E+01 -.162E+02 -.798E+03   0.676E+01 0.162E+02 0.798E+03   -.189E-01 0.343E-02 0.666E-01   -.750E-03 -.511E-02 -.968E-01
   -.638E+01 0.632E+01 -.802E+03   0.640E+01 -.631E+01 0.803E+03   -.278E-01 -.110E-01 0.520E-01   0.285E-02 0.476E-02 -.105E+00
   -.742E+01 0.333E+02 -.255E+04   0.741E+01 -.333E+02 0.255E+04   -.784E-03 0.138E-01 0.326E+01   0.521E-02 0.612E-02 -.318E-01
   -.342E+01 0.181E+02 -.252E+04   0.370E+01 -.181E+02 0.252E+04   -.272E+00 0.103E-01 0.334E+01   0.163E-02 0.328E-02 -.322E-01
   0.145E+02 -.376E+02 -.254E+04   -.144E+02 0.377E+02 0.254E+04   -.107E+00 -.285E-01 0.332E+01   0.845E-02 -.430E-02 -.309E-01
   0.362E+01 -.136E+02 -.256E+04   -.363E+01 0.136E+02 0.256E+04   0.391E-02 -.320E-02 0.324E+01   0.611E-02 -.446E-03 -.314E-01
   0.256E+02 0.477E+02 -.255E+04   -.256E+02 -.476E+02 0.254E+04   -.160E-01 -.834E-01 0.327E+01   0.735E-02 0.400E-02 -.364E-01
   0.143E+03 0.128E+03 -.245E+04   -.144E+03 -.128E+03 0.245E+04   0.423E+00 0.378E+00 0.275E+01   0.619E-02 0.753E-02 -.302E-01
   0.139E+03 -.141E+03 -.246E+04   -.139E+03 0.141E+03 0.246E+04   0.378E+00 -.364E+00 0.276E+01   0.112E-01 -.368E-02 -.319E-01
   0.225E+02 -.355E+02 -.256E+04   -.225E+02 0.354E+02 0.255E+04   0.235E-02 0.815E-01 0.330E+01   0.823E-02 -.919E-02 -.370E-01
   0.860E+01 0.686E+02 -.253E+04   -.851E+01 -.685E+02 0.253E+04   -.947E-01 -.136E+00 0.311E+01   -.161E-02 0.542E-02 -.370E-01
   -.740E+02 0.134E+03 -.236E+04   0.739E+02 -.135E+03 0.235E+04   0.955E-01 0.373E+00 0.266E+01   -.365E-02 0.112E-01 -.342E-01
   -.105E+03 -.168E+03 -.242E+04   0.105E+03 0.168E+03 0.242E+04   -.328E+00 -.308E+00 0.263E+01   -.210E-02 -.478E-02 -.379E-01
   -.767E+01 -.363E+02 -.255E+04   0.771E+01 0.362E+02 0.254E+04   -.224E-01 0.788E-01 0.325E+01   -.765E-02 -.977E-02 -.363E-01
   -.263E+02 0.616E+02 -.251E+04   0.263E+02 -.618E+02 0.251E+04   0.751E-01 0.157E+00 0.307E+01   -.390E-02 0.718E-02 -.329E-01
   -.751E+02 0.175E+02 -.243E+04   0.753E+02 -.176E+02 0.243E+04   -.188E+00 0.132E-01 0.336E+01   -.124E-01 0.432E-02 -.258E-01
   -.487E+02 -.660E+02 -.250E+04   0.485E+02 0.662E+02 0.250E+04   0.130E+00 -.207E+00 0.323E+01   -.128E-01 -.105E-01 -.346E-01
   -.183E+02 -.138E+02 -.255E+04   0.183E+02 0.138E+02 0.255E+04   0.545E-02 0.552E-02 0.319E+01   -.107E-01 -.697E-02 -.308E-01
   0.364E+02 -.139E+02 -.135E+04   -.382E+02 0.144E+02 0.133E+04   0.182E+01 -.487E+00 0.251E+02   0.198E-02 0.753E-03 -.621E-02
   0.274E+02 -.127E+02 -.210E+04   -.260E+02 0.122E+02 0.215E+04   -.146E+01 0.530E+00 -.541E+02   -.405E-03 0.139E-02 0.106E-01
   -.955E+02 0.113E+02 -.187E+04   0.141E+03 -.443E+01 0.187E+04   -.452E+02 -.690E+01 0.122E+01   -.121E-01 -.673E-03 0.622E-02
   0.330E+02 0.834E+02 -.316E+03   -.367E+02 -.907E+02 0.317E+03   0.372E+01 0.732E+01 -.728E+00   -.765E-03 0.413E-03 0.167E-02
   0.461E+02 -.597E+02 -.319E+03   -.517E+02 0.656E+02 0.320E+03   0.567E+01 -.589E+01 -.893E+00   -.736E-03 -.716E-04 0.142E-02
 -----------------------------------------------------------------------------------------------
   0.352E+02 0.543E+01 0.352E+02   0.334E-12 -.114E-12 -.147E-10   -.352E+02 -.544E+01 -.311E+02   -.983E-02 0.229E-02 -.410E+01
 
 
 POSITION                                       TOTAL-FORCE (eV/Angst)
 -----------------------------------------------------------------------------------
      1.37275      1.37275     12.08797        -0.018067     -0.006070      0.003397
      1.37275      4.11824     12.08797        -0.023981     -0.000625      0.008827
      1.37275      6.86373     12.08797        -0.001653      0.013411     -0.021231
      1.37275      9.60922     12.08797        -0.008722     -0.006113     -0.010631
      4.11824      1.37275     12.08797         0.004740     -0.013797      0.011526
      4.11824      4.11824     12.08797         0.001492     -0.002297      0.002837
      4.11824      6.86373     12.08797        -0.002411      0.023269     -0.010238
      4.11824      9.60922     12.08797        -0.003309     -0.007035      0.007393
      6.86373      1.37275     12.08797         0.010695     -0.007958     -0.010307
      6.86373      4.11824     12.08797         0.016420      0.000550      0.001143
      6.86373      6.86373     12.08797         0.012709      0.011739     -0.002730
      6.86373      9.60922     12.08797         0.017277      0.000151      0.004728
      9.60922      1.37275     12.08797         0.003097     -0.010405     -0.000112
      9.60922      4.11824     12.08797         0.003831     -0.002470      0.016813
      9.60922      6.86373     12.08797         0.003155      0.006782      0.014534
      9.60922      9.60922     12.08797         0.004708      0.006992     -0.027335
     10.98095      0.00247     14.04370         0.000053      0.001467     -0.001915
     10.97912      2.74311     14.04652         0.001634     -0.003466     -0.000992
      0.00047      5.49172     14.04389         0.000402      0.003634      0.000098
      0.00242      8.23591     14.04235        -0.001337     -0.003545     -0.001825
      2.74148     10.98143     14.04082         0.000247      0.002092      0.000485
      2.74230      2.74355     14.03639        -0.001192     -0.002421     -0.001375
      2.74177      5.49427     14.03918         0.000593      0.001940      0.000729
      2.74240      8.23506     14.04062         0.000829     -0.002332     -0.002420
      5.49657      0.00137     14.04007        -0.002865      0.000315     -0.002049
      5.49655      2.74336     14.04223         0.002476      0.000559     -0.002146
      5.49435      5.49378     14.03684        -0.000453     -0.001316     -0.001313
      5.49464      8.23573     14.04160         0.000186      0.000029     -0.003657
      8.23790      0.00389     14.04472         0.001015      0.003526     -0.001397
      8.23666      2.74211     14.04036        -0.002619     -0.001893      0.004184
      8.23836      5.49117     14.04409        -0.001221      0.003279     -0.001122
      8.23767      8.23691     14.04004         0.000153     -0.002901     -0.001562
      1.38729      1.38573     16.00499         0.002979     -0.003205      0.000190
      1.36868      4.11950     15.98737         0.000442      0.002487      0.000603
      1.39044      6.84894     16.01094         0.001086     -0.002556      0.000474
      1.37500      9.60860     15.98901         0.000199      0.002158      0.006318
      4.11723      1.36281     15.97855        -0.004169     -0.007319      0.000866
      4.11657      4.12265     15.94391        -0.001033      0.003683     -0.000824
      4.11932      6.86988     15.98690        -0.001627     -0.001533      0.000610
      4.11996      9.60783     15.98513        -0.001846      0.003526      0.004299
      6.85856      1.39398     16.01714         0.004852      0.000651      0.000295
      6.88011      4.11540     15.98953        -0.000535      0.000098      0.004741
      6.84983      6.85100     16.00363         0.001372      0.002357      0.002080
      6.86392      9.61020     15.98483        -0.001666     -0.000870      0.007677
      9.60145      1.38434     16.00424        -0.001181      0.000391     -0.001547
      9.60286      4.10800     16.00163        -0.001285     -0.001798      0.001365
      9.61444      6.86400     15.98563         0.000774      0.001220      0.000546
      9.61350      9.61077     15.98359        -0.001757     -0.001458      0.003465
      0.00183     10.98152     17.94278         0.000080     -0.004389      0.002304
      0.01988      2.74597     17.94455         0.005404      0.000655      0.004609
      0.00212      5.49224     17.95062         0.000928     -0.000784      0.001075
      0.00015      8.23797     17.94075         0.001774     -0.001599      0.000093
      2.75062     10.97928     17.94544        -0.002794     -0.001348     -0.001902
      2.75760      2.75353     18.00203         0.002163      0.000325     -0.000098
      2.76163      5.47911     18.00636        -0.002494      0.000915     -0.005407
      2.74817      8.23930     17.94954         0.001349      0.002599     -0.002109
      5.49511     10.98060     17.95030        -0.002455     -0.005181      0.001170
      5.46742      2.75272     17.96164         0.002303      0.002049      0.000143
      5.48998      5.48424     17.99799        -0.002467     -0.003284      0.001431
      5.49263      8.24101     17.94660         0.001579      0.002973     -0.001029
      8.23676     10.96973     17.93123        -0.004973     -0.002335      0.001171
      8.26410      2.75256     18.03715         0.002268      0.002965     -0.004425
      8.24242      5.50699     17.93535        -0.003211      0.001314      0.004781
      8.23897      8.23869     17.94026        -0.000425      0.004676      0.000787
      4.16697      4.11036     19.03215         0.001278      0.000321      0.004524
      4.21910      4.09390     20.26119        -0.001292      0.000490     -0.005868
      7.77320      2.73192     20.34430        -0.002413      0.013072     -0.008305
      7.30537      1.87744     20.43306        -0.011365     -0.014593     -0.001014
      7.07654      3.41151     20.45082         0.000273     -0.001763      0.004575
 -----------------------------------------------------------------------------------
    total drift:                                0.003802     -0.000905      0.031077


--------------------------------------------------------------------------------------------------------



  FREE ENERGIE OF THE ION-ELECTRON SYSTEM (eV)
  ---------------------------------------------------
  free  energy   TOTEN  =      -365.64336938 eV

  energy  without entropy=     -365.53023718  energy(sigma->0) =     -365.60565865
 
 d Force = 0.3325511E-06[-0.180E-06, 0.845E-06]  d Energy = 0.6019429E-06-0.269E-06
 d Force =-0.2678022E+00[-0.268E+00,-0.268E+00]  d Ewald  =-0.2678022E+00 0.180E-08


--------------------------------------------------------------------------------------------------------


    POTLOK:  cpu time    0.2630: real time    0.2522


--------------------------------------------------------------------------------------------------------




--------------------------------------------------------------------------------------------------------


  
 reached required accuracy - stopping structural energy minimisation
     LOOP+:  cpu time  338.9404: real time  180.0760
    4ORBIT:  cpu time    0.0000: real time    0.0000
 


 total charge     
 
# of ion       s       p       d       tot
------------------------------------------
    1        0.446   0.308   8.521   9.275
    2        0.445   0.308   8.522   9.274
    3        0.446   0.308   8.522   9.276
    4        0.445   0.308   8.521   9.273
    5        0.445   0.308   8.522   9.274
    6        0.445   0.308   8.522   9.274
    7        0.445   0.308   8.522   9.275
    8        0.445   0.306   8.523   9.275
    9        0.446   0.308   8.521   9.276
   10        0.445   0.308   8.522   9.275
   11        0.446   0.308   8.522   9.276
   12        0.445   0.308   8.520   9.273
   13        0.445   0.308   8.520   9.273
   14        0.446   0.306   8.523   9.275
   15        0.444   0.308   8.520   9.272
   16        0.443   0.308   8.523   9.274
   17        0.485   0.475   8.463   9.423
   18        0.485   0.479   8.458   9.421
   19        0.485   0.477   8.462   9.424
   20        0.485   0.478   8.461   9.424
   21        0.486   0.480   8.459   9.425
   22        0.488   0.482   8.458   9.428
   23        0.489   0.483   8.457   9.429
   24        0.486   0.480   8.459   9.425
   25        0.485   0.478   8.460   9.424
   26        0.488   0.482   8.456   9.426
   27        0.488   0.482   8.458   9.428
   28        0.486   0.480   8.459   9.426
   29        0.485   0.477   8.461   9.422
   30        0.486   0.481   8.460   9.427
   31        0.485   0.479   8.458   9.422
   32        0.485   0.477   8.462   9.424
   33        0.486   0.477   8.459   9.423
   34        0.485   0.473   8.465   9.423
   35        0.487   0.477   8.458   9.422
   36        0.486   0.477   8.458   9.421
   37        0.486   0.474   8.467   9.426
   38        0.475   0.460   8.487   9.422
   39        0.485   0.472   8.466   9.424
   40        0.486   0.479   8.461   9.426
   41        0.486   0.472   8.462   9.420
   42        0.485   0.469   8.468   9.421
   43        0.487   0.477   8.461   9.425
   44        0.486   0.478   8.459   9.422
   45        0.486   0.476   8.456   9.417
   46        0.486   0.478   8.458   9.422
   47        0.485   0.477   8.459   9.422
   48        0.489   0.480   8.458   9.427
   49        0.445   0.308   8.522   9.275
   50        0.449   0.311   8.525   9.286
   51        0.445   0.306   8.526   9.277
   52        0.446   0.309   8.521   9.276
   53        0.447   0.308   8.524   9.278
   54        0.435   0.367   8.531   9.332
   55        0.432   0.362   8.531   9.325
   56        0.446   0.307   8.525   9.277
   57        0.449   0.310   8.527   9.285
   58        0.444   0.388   8.544   9.375
   59        0.439   0.376   8.535   9.350
   60        0.447   0.308   8.524   9.279
   61        0.451   0.315   8.525   9.291
   62        0.413   0.337   8.496   9.246
   63        0.451   0.313   8.529   9.293
   64        0.448   0.311   8.519   9.278
   65        1.286   2.333   0.000   3.619
   66        1.630   3.432   0.000   5.062
   67        1.591   3.606   0.000   5.197
   68        0.611   0.112   0.000   0.724
   69        0.610   0.112   0.000   0.721
--------------------------------------------------
tot         35.478  35.021 543.502 614.001
 


 magnetization (x)
 
# of ion       s       p       d       tot
------------------------------------------
    1       -0.001  -0.004   0.223   0.218
    2       -0.001  -0.004   0.224   0.219
    3       -0.000  -0.004   0.228   0.224
    4       -0.001  -0.003   0.228   0.224
    5       -0.001  -0.004   0.223   0.218
    6       -0.001  -0.004   0.229   0.225
    7       -0.001  -0.003   0.228   0.224
    8       -0.000  -0.004   0.214   0.210
    9       -0.000  -0.004   0.226   0.222
   10       -0.001  -0.003   0.227   0.222
   11       -0.001  -0.004   0.222   0.217
   12       -0.001  -0.003   0.222   0.217
   13       -0.001  -0.003   0.227   0.223
   14       -0.000  -0.004   0.214   0.210
   15       -0.002  -0.003   0.221   0.216
   16        0.003  -0.004   0.235   0.234
   17       -0.002  -0.006   0.316   0.309
   18       -0.002  -0.006   0.324   0.316
   19       -0.002  -0.006   0.318   0.310
   20       -0.002  -0.006   0.316   0.308
   21       -0.002  -0.006   0.321   0.312
   22       -0.002  -0.006   0.327   0.319
   23       -0.002  -0.006   0.327   0.319
   24       -0.002  -0.006   0.320   0.312
   25       -0.002  -0.006   0.324   0.316
   26       -0.002  -0.006   0.325   0.317
   27       -0.002  -0.006   0.328   0.321
   28       -0.002  -0.006   0.320   0.312
   29       -0.002  -0.006   0.315   0.307
   30       -0.002  -0.006   0.324   0.316
   31       -0.002  -0.006   0.319   0.311
   32       -0.002  -0.006   0.315   0.307
   33       -0.002  -0.006   0.285   0.276
   34       -0.002  -0.006   0.313   0.306
   35       -0.002  -0.006   0.289   0.281
   36       -0.002  -0.006   0.319   0.311
   37       -0.002  -0.006   0.309   0.302
   38       -0.001  -0.005   0.272   0.266
   39       -0.001  -0.006   0.316   0.309
   40       -0.002  -0.006   0.316   0.308
   41       -0.002  -0.006   0.281   0.273
   42       -0.001  -0.006   0.311   0.304
   43       -0.002  -0.006   0.279   0.271
   44       -0.002  -0.006   0.311   0.303
   45       -0.002  -0.006   0.309   0.301
   46       -0.002  -0.006   0.304   0.296
   47       -0.002  -0.006   0.309   0.301
   48       -0.001  -0.006   0.324   0.316
   49       -0.001  -0.003   0.221   0.217
   50       -0.001  -0.004   0.215   0.210
   51       -0.000  -0.004   0.210   0.206
   52       -0.001  -0.003   0.218   0.213
   53       -0.000  -0.003   0.207   0.203
   54       -0.002  -0.004   0.109   0.103
   55       -0.002  -0.004   0.111   0.105
   56       -0.000  -0.003   0.209   0.205
   57       -0.000  -0.004   0.206   0.202
   58       -0.003  -0.004   0.099   0.092
   59       -0.002  -0.004   0.101   0.095
   60       -0.000  -0.003   0.206   0.202
   61       -0.001  -0.004   0.219   0.214
   62       -0.002  -0.004   0.186   0.179
   63       -0.001  -0.004   0.210   0.205
   64       -0.001  -0.003   0.213   0.210
   65        0.001  -0.009   0.000  -0.008
   66       -0.000  -0.017   0.000  -0.018
   67        0.000   0.004   0.000   0.004
   68       -0.000   0.000   0.000   0.000
   69       -0.000   0.000   0.000   0.000
--------------------------------------------------
tot         -0.084  -0.335  16.516  16.097
 

 total amount of memory used by VASP MPI-rank0   345530. kBytes
=======================================================================

   base      :      30000. kBytes
   nonlr-proj:      51371. kBytes
   fftplans  :       9850. kBytes
   grid      :      97777. kBytes
   one-center:       2146. kBytes
   wavefun   :     154386. kBytes
 
  
  
 General timing and accounting informations for this job:
 ========================================================
  
                  Total CPU time used (sec):     8422.346
                            User time (sec):     8135.005
                          System time (sec):      287.341
                         Elapsed time (sec):     4678.661
  
                   Maximum memory used (kb):      846420.
                   Average memory used (kb):           0.
  
                          Minor page faults:      1440585
                          Major page faults:           19
                 Voluntary context switches:        37007
