 vasp.5.4.4.18Apr17-6-g9f103f2a35 (build Jun 11 2020 13:42:08) complex          
  
 executed on             LinuxIFC date 2021.11.08  20:32:18
 running on   48 total cores
 each image running on   12 cores
 distrk:  each k-point on   12 cores,    1 groups
 distr:  one band on NCORES_PER_BAND=  12 cores,    1 groups


--------------------------------------------------------------------------------------------------------


 INCAR:
 POTCAR:    PAW_PBE Cu 22Jun2005                  
 POTCAR:    PAW_PBE H 15Jun2001                   
 POTCAR:    PAW_PBE N 08Apr2002                   
 POTCAR:    PAW_PBE O 08Apr2002                   

 ----------------------------------------------------------------------------- 
|                                                                             |
|           W    W    AA    RRRRR   N    N  II  N    N   GGGG   !!!           |
|           W    W   A  A   R    R  NN   N  II  NN   N  G    G  !!!           |
|           W    W  A    A  R    R  N N  N  II  N N  N  G       !!!           |
|           W WW W  AAAAAA  RRRRR   N  N N  II  N  N N  G  GGG   !            |
|           WW  WW  A    A  R   R   N   NN  II  N   NN  G    G                |
|           W    W  A    A  R    R  N    N  II  N    N   GGGG   !!!           |
|                                                                             |
|      For optimal performance we recommend to set                            |
|        NCORE= 4 - approx SQRT( number of cores)                             |
|      NCORE specifies how many cores store one orbital (NPAR=cpu/NCORE).     |
|      This setting can  greatly improve the performance of VASP for DFT.     |
|      The default,   NCORE=1            might be grossly inefficient         |
|      on modern multi-core architectures or massively parallel machines.     |
|      Do your own testing !!!!                                               |
|      Unfortunately you need to use the default for GW and RPA calculations. |
|      (for HF NCORE is supported but not extensively tested yet)             |
|                                                                             |
 ----------------------------------------------------------------------------- 

 POTCAR:    PAW_PBE Cu 22Jun2005                  
   VRHFIN =Cu: d10 p1                                                           
   LEXCH  = PE                                                                  
   EATOM  =  1390.9808 eV,  102.2342 Ry                                         
                                                                                
   TITEL  = PAW_PBE Cu 22Jun2005                                                
   LULTRA =        F    use ultrasoft PP ?                                      
   IUNSCR =        1    unscreen: 0-lin 1-nonlin 2-no                           
   RPACOR =    2.000    partial core radius                                     
   POMASS =   63.546; ZVAL   =   11.000    mass and valenz                      
   RCORE  =    2.300    outmost cutoff radius                                   
   RWIGS  =    2.200; RWIGS  =    1.164    wigner-seitz radius (au A)           
   ENMAX  =  295.446; ENMIN  =  221.585 eV                                      
   ICORE  =        3    local potential                                         
   LCOR   =        T    correct aug charges                                     
   LPAW   =        T    paw PP                                                  
   EAUG   =  586.980                                                            
   DEXC   =    0.000                                                            
   RMAX   =    2.344    core radius for proj-oper                               
   RAUG   =    1.300    factor for augmentation sphere                          
   RDEP   =    2.302    radius for radial grids                                 
   RDEPT  =    1.771    core radius for aug-charge                              
                                                                                
   Atomic configuration                                                         
    9 entries                                                                   
     n  l   j            E        occ.                                          
     1  0  0.50     -8850.2468   2.0000                                         
     2  0  0.50     -1062.3498   2.0000                                         
     2  1  1.50      -916.8226   6.0000                                         
     3  0  0.50      -114.6929   2.0000                                         
     3  1  1.50       -72.1325   6.0000                                         
     3  2  2.50        -5.0394  10.0000                                         
     4  0  0.50        -4.6097   1.0000                                         
     4  1  0.50        -4.0817   0.0000                                         
     4  3  2.50        -1.3606   0.0000                                         
   Description                                                                  
     l       E           TYP  RCUT    TYP  RCUT                                 
     2     -5.0393973     23  2.200                                             
     2     10.8846608     23  2.200                                             
     0     -4.6097109     23  2.200                                             
     0      8.2520465     23  2.200                                             
     1     -2.7211652     23  2.200                                             
     1     21.7055443     23  2.200                                             
     3      2.7211652     23  2.300                                             
  local pseudopotential read in
  partial core-charges read in
  partial kinetic energy density read in
  atomic valenz-charges read in
  non local Contribution for L=           2  read in
    real space projection operators read in
  non local Contribution for L=           2  read in
    real space projection operators read in
  non local Contribution for L=           0  read in
    real space projection operators read in
  non local Contribution for L=           0  read in
    real space projection operators read in
  non local Contribution for L=           1  read in
    real space projection operators read in
  non local Contribution for L=           1  read in
    real space projection operators read in
    PAW grid and wavefunctions read in
 
   number of l-projection  operators is LMAX  =           6
   number of lm-projection operators is LMMAX =          18
 
 POTCAR:    PAW_PBE H 15Jun2001                   
   VRHFIN =H: ultrasoft test                                                    
   LEXCH  = PE                                                                  
   EATOM  =    12.4884 eV,    0.9179 Ry                                         
                                                                                
   TITEL  = PAW_PBE H 15Jun2001                                                 
   LULTRA =        F    use ultrasoft PP ?                                      
   IUNSCR =        0    unscreen: 0-lin 1-nonlin 2-no                           
   RPACOR =    0.000    partial core radius                                     
   POMASS =    1.000; ZVAL   =    1.000    mass and valenz                      
   RCORE  =    1.100    outmost cutoff radius                                   
   RWIGS  =    0.700; RWIGS  =    0.370    wigner-seitz radius (au A)           
   ENMAX  =  250.000; ENMIN  =  200.000 eV                                      
   RCLOC  =    0.701    cutoff for local pot                                    
   LCOR   =        T    correct aug charges                                     
   LPAW   =        T    paw PP                                                  
   EAUG   =  400.000                                                            
   RMAX   =    1.123    core radius for proj-oper                               
   RAUG   =    1.200    factor for augmentation sphere                          
   RDEP   =    1.112    radius for radial grids                                 
   RDEPT  =    0.926    core radius for aug-charge                              
                                                                                
   Atomic configuration                                                         
    2 entries                                                                   
     n  l   j            E        occ.                                          
     1  0  0.50        -6.4927   1.0000                                         
     2  1  0.50        -3.4015   0.0000                                         
   Description                                                                  
     l       E           TYP  RCUT    TYP  RCUT                                 
     0     -6.4927494     23  1.100                                             
     0      6.8029130     23  1.100                                             
     1     -4.0817478     23  1.100                                             
  local pseudopotential read in
  atomic valenz-charges read in
  non local Contribution for L=           0  read in
    real space projection operators read in
  non local Contribution for L=           0  read in
    real space projection operators read in
  non local Contribution for L=           1  read in
    real space projection operators read in
    PAW grid and wavefunctions read in
 
   number of l-projection  operators is LMAX  =           3
   number of lm-projection operators is LMMAX =           5
 
 POTCAR:    PAW_PBE N 08Apr2002                   
   VRHFIN =N: s2p3                                                              
   LEXCH  = PE                                                                  
   EATOM  =   264.5486 eV,   19.4438 Ry                                         
                                                                                
   TITEL  = PAW_PBE N 08Apr2002                                                 
   LULTRA =        F    use ultrasoft PP ?                                      
   IUNSCR =        1    unscreen: 0-lin 1-nonlin 2-no                           
   RPACOR =    1.200    partial core radius                                     
   POMASS =   14.001; ZVAL   =    5.000    mass and valenz                      
   RCORE  =    1.500    outmost cutoff radius                                   
   RWIGS  =    1.400; RWIGS  =    0.741    wigner-seitz radius (au A)           
   ENMAX  =  400.000; ENMIN  =  300.000 eV                                      
   ICORE  =        2    local potential                                         
   LCOR   =        T    correct aug charges                                     
   LPAW   =        T    paw PP                                                  
   EAUG   =  627.112                                                            
   DEXC   =    0.000                                                            
   RMAX   =    1.529    core radius for proj-oper                               
   RAUG   =    1.300    factor for augmentation sphere                          
   RDEP   =    1.514    radius for radial grids                                 
   RDEPT  =    1.338    core radius for aug-charge                              
                                                                                
   Atomic configuration                                                         
    4 entries                                                                   
     n  l   j            E        occ.                                          
     1  0  0.50      -384.7179   2.0000                                         
     2  0  0.50       -18.5828   2.0000                                         
     2  1  0.50        -7.0898   3.0000                                         
     3  2  1.50        -6.8029   0.0000                                         
   Description                                                                  
     l       E           TYP  RCUT    TYP  RCUT                                 
     0    -18.5828119     23  1.200                                             
     0    -13.5018863     23  1.200                                             
     1     -7.0897853     23  1.500                                             
     1      9.5240782     23  1.500                                             
     2     -6.8029130      7  1.500                                             
  local pseudopotential read in
  partial core-charges read in
  partial kinetic energy density read in
  atomic valenz-charges read in
  non local Contribution for L=           0  read in
    real space projection operators read in
  non local Contribution for L=           0  read in
    real space projection operators read in
  non local Contribution for L=           1  read in
    real space projection operators read in
  non local Contribution for L=           1  read in
    real space projection operators read in
    PAW grid and wavefunctions read in
 
   number of l-projection  operators is LMAX  =           4
   number of lm-projection operators is LMMAX =           8
 
 POTCAR:    PAW_PBE O 08Apr2002                   
   VRHFIN =O: s2p4                                                              
   LEXCH  = PE                                                                  
   EATOM  =   432.3788 eV,   31.7789 Ry                                         
                                                                                
   TITEL  = PAW_PBE O 08Apr2002                                                 
   LULTRA =        F    use ultrasoft PP ?                                      
   IUNSCR =        1    unscreen: 0-lin 1-nonlin 2-no                           
   RPACOR =    1.200    partial core radius                                     
   POMASS =   16.000; ZVAL   =    6.000    mass and valenz                      
   RCORE  =    1.520    outmost cutoff radius                                   
   RWIGS  =    1.550; RWIGS  =    0.820    wigner-seitz radius (au A)           
   ENMAX  =  400.000; ENMIN  =  300.000 eV                                      
   ICORE  =        2    local potential                                         
   LCOR   =        T    correct aug charges                                     
   LPAW   =        T    paw PP                                                  
   EAUG   =  605.392                                                            
   DEXC   =    0.000                                                            
   RMAX   =    1.553    core radius for proj-oper                               
   RAUG   =    1.300    factor for augmentation sphere                          
   RDEP   =    1.550    radius for radial grids                                 
   RDEPT  =    1.329    core radius for aug-charge                              
                                                                                
   Atomic configuration                                                         
    4 entries                                                                   
     n  l   j            E        occ.                                          
     1  0  0.50      -514.6923   2.0000                                         
     2  0  0.50       -23.9615   2.0000                                         
     2  1  0.50        -9.0305   4.0000                                         
     3  2  1.50        -9.5241   0.0000                                         
   Description                                                                  
     l       E           TYP  RCUT    TYP  RCUT                                 
     0    -23.9615318     23  1.200                                             
     0     -9.5240782     23  1.200                                             
     1     -9.0304911     23  1.520                                             
     1      8.1634956     23  1.520                                             
     2     -9.5240782      7  1.500                                             
  local pseudopotential read in
  partial core-charges read in
  partial kinetic energy density read in
  kinetic energy density of atom read in
  atomic valenz-charges read in
  non local Contribution for L=           0  read in
    real space projection operators read in
  non local Contribution for L=           0  read in
    real space projection operators read in
  non local Contribution for L=           1  read in
    real space projection operators read in
  non local Contribution for L=           1  read in
    real space projection operators read in
    PAW grid and wavefunctions read in
 
   number of l-projection  operators is LMAX  =           4
   number of lm-projection operators is LMMAX =           8
 
 Optimization of the real space projectors (new method)

 maximal supplied QI-value         = 16.25
 optimisation between [QCUT,QGAM] = [ 10.24, 20.48] = [ 29.35,117.42] Ry 
 Optimized for a Real-space Cutoff    1.55 Angstroem

   l    n(q)    QCUT    max X(q) W(low)/X(q) W(high)/X(q)  e(spline) 
   2      9    10.239     4.610    0.85E-04    0.29E-03    0.14E-06
   2      9    10.239     8.522    0.15E-03    0.50E-03    0.27E-06
   0     10    10.239    51.609    0.45E-04    0.99E-04    0.10E-06
   0     10    10.239    27.747    0.40E-04    0.93E-04    0.97E-07
   1      9    10.239    20.408    0.15E-03    0.78E-05    0.15E-06
   1      9    10.239    13.425    0.13E-03    0.71E-05    0.14E-06
 Optimization of the real space projectors (new method)

 maximal supplied QI-value         = 34.20
 optimisation between [QCUT,QGAM] = [  9.92, 20.18] = [ 27.55,114.04] Ry 
 Optimized for a Real-space Cutoff    1.34 Angstroem

   l    n(q)    QCUT    max X(q) W(low)/X(q) W(high)/X(q)  e(spline) 
   0      8     9.919    19.460    0.16E-03    0.20E-03    0.36E-06
   0      8     9.919    12.209    0.16E-03    0.20E-03    0.35E-06
   1      8     9.919     4.655    0.19E-03    0.46E-03    0.40E-06
 Optimization of the real space projectors (new method)

 maximal supplied QI-value         = 25.13
 optimisation between [QCUT,QGAM] = [ 10.05, 20.36] = [ 28.30,116.06] Ry 
 Optimized for a Real-space Cutoff    1.70 Angstroem

   l    n(q)    QCUT    max X(q) W(low)/X(q) W(high)/X(q)  e(spline) 
   0     10    10.053    79.467    0.61E-04    0.98E-04    0.61E-06
   0     10    10.053    66.151    0.60E-04    0.98E-04    0.61E-06
   1     10    10.053     8.350    0.17E-03    0.71E-03    0.45E-05
   1     10    10.053     5.531    0.18E-03    0.77E-03    0.49E-05
 Optimization of the real space projectors (new method)

 maximal supplied QI-value         = 24.76
 optimisation between [QCUT,QGAM] = [ 10.15, 20.30] = [ 28.85,115.39] Ry 
 Optimized for a Real-space Cutoff    1.51 Angstroem

   l    n(q)    QCUT    max X(q) W(low)/X(q) W(high)/X(q)  e(spline) 
   0      9    10.150    20.381    0.17E-03    0.18E-03    0.41E-06
   0      9    10.150    15.268    0.18E-03    0.20E-03    0.43E-06
   1      9    10.150     5.964    0.16E-03    0.20E-03    0.36E-06
   1      9    10.150     5.382    0.13E-03    0.16E-03    0.33E-06
  PAW_PBE Cu 22Jun2005                  :
 energy of atom  1       EATOM=-1390.9808
 kinetic energy error for atom=    0.0232 (will be added to EATOM!!)
  PAW_PBE H 15Jun2001                   :
 energy of atom  2       EATOM=  -12.4884
 kinetic energy error for atom=    0.0098 (will be added to EATOM!!)
  PAW_PBE N 08Apr2002                   :
 energy of atom  3       EATOM= -264.5486
 kinetic energy error for atom=    0.0736 (will be added to EATOM!!)
  PAW_PBE O 08Apr2002                   :
 energy of atom  4       EATOM= -432.3788
 kinetic energy error for atom=    0.1156 (will be added to EATOM!!)
 
 
 POSCAR: Cu H N O                                
  positions in direct lattice
  velocities in cartesian coordinates
 exchange correlation table for  LEXCH =        8
   RHO(1)=    0.500       N(1)  =     2000
   RHO(2)=  100.500       N(2)  =     4000

 VTST: version 3.1, (03/28/14)

 CHAIN: initializing optimizer
 
 OPT: Using VASP QUASI-newton optimizer
 CHAIN: Read ICHAIN            0
 CHAIN: Running the NEB
 NEB:          SPRING     -5.000000
 NEB:          LCLIMB      T
 NEB:     LTANGENTOLD      F
 NEB:           LDNEB      F
 NEB:        LDNEBORG      F
 NEB:        LNEBCELL      F
 NEB:          EFIRST   -273.701737
 NEB:           ELAST   -273.985119
 
 POSCAR: Cu H N O                                
  positions in direct lattice
  No initial velocities read in
 
 POSCAR: Cu H N O                                
  positions in direct lattice
  No initial velocities read in
 


--------------------------------------------------------------------------------------------------------


 ion  position               nearest neighbor table
   1  0.125  0.125  0.410-  22 2.50  21 2.52  18 2.52   4 2.52   5 2.52   2 2.52  13 2.52  17 2.53

   2  0.125  0.375  0.410-  23 2.51  22 2.51   6 2.52   1 2.52   3 2.52  14 2.52  18 2.52  19 2.53

   3  0.125  0.625  0.410-  23 2.50  24 2.52   4 2.52   7 2.52   2 2.52  15 2.52  19 2.53  20 2.53

   4  0.125  0.875  0.410-  24 2.52  21 2.52   1 2.52   3 2.52   8 2.52  16 2.52  17 2.52  20 2.53

   5  0.375  0.125  0.410-  26 2.50  22 2.52  25 2.52   9 2.52   8 2.52   1 2.52   6 2.52  21 2.52

   6  0.375  0.375  0.410-  27 2.51  26 2.51  10 2.52   5 2.52   2 2.52   7 2.52  22 2.52  23 2.52

   7  0.375  0.625  0.410-  27 2.50  23 2.52  28 2.52  11 2.52   8 2.52   3 2.52   6 2.52  24 2.53

   8  0.375  0.875  0.410-  25 2.52  12 2.52   5 2.52   4 2.52   7 2.52  28 2.52  21 2.52  24 2.53

   9  0.625  0.125  0.410-  26 2.50  30 2.52   5 2.52  12 2.52  10 2.52  13 2.52  29 2.52  25 2.52

  10  0.625  0.375  0.410-  26 2.52  27 2.52  31 2.52  30 2.52   6 2.52  14 2.52   9 2.52  11 2.52

  11  0.625  0.625  0.410-  27 2.50  32 2.52  31 2.52   7 2.52  15 2.52  12 2.52  10 2.52  28 2.52

  12  0.625  0.875  0.410-  29 2.52  25 2.52   8 2.52   9 2.52  16 2.52  11 2.52  32 2.52  28 2.53

  13  0.875  0.125  0.410-  18 2.52  30 2.52  16 2.52   9 2.52  14 2.52   1 2.52  17 2.52  29 2.53

  14  0.875  0.375  0.410-  19 2.52  18 2.52  10 2.52  13 2.52  15 2.52   2 2.52  31 2.52  30 2.53

  15  0.875  0.625  0.410-  19 2.52  20 2.52  16 2.52  11 2.52  14 2.52  32 2.52   3 2.52  31 2.53

  16  0.875  0.875  0.410-  29 2.52  17 2.52  13 2.52  15 2.52  12 2.52   4 2.52  20 2.53  32 2.53

  17  1.000  1.000  0.470-  21 2.52  18 2.52  16 2.52  13 2.52   4 2.52  29 2.52   1 2.53  20 2.53
                            36 2.54  45 2.55  48 2.56  33 2.57
  18  1.000  0.250  0.470-  22 2.51  13 2.52  17 2.52   1 2.52  14 2.52  30 2.52   2 2.52  19 2.52
                            46 2.54  45 2.55  34 2.55  33 2.56
  19  0.999  0.500  0.470-  23 2.51  20 2.52  14 2.52  15 2.52  31 2.52  18 2.52   2 2.53   3 2.53
                            46 2.54  35 2.55  34 2.56  47 2.56
  20  0.999  0.749  0.470-  19 2.52  15 2.52  32 2.52  24 2.52  16 2.53   3 2.53  17 2.53   4 2.53
                            36 2.54  48 2.55  35 2.56  47 2.57
  21  0.250  0.000  0.470-  22 2.51  17 2.52   4 2.52   1 2.52  25 2.52  24 2.52   8 2.52   5 2.52
                            40 2.54  36 2.55  37 2.55  33 2.56
  22  0.248  0.249  0.469-  38 2.48   1 2.50   2 2.51  18 2.51  21 2.51   5 2.52   6 2.52  26 2.54
                            23 2.54  37 2.55  33 2.55  34 2.56
  23  0.248  0.501  0.469-  38 2.48   3 2.50   2 2.51  19 2.51  24 2.51   7 2.52   6 2.52  22 2.54
                            27 2.54  39 2.54  35 2.56  34 2.56
  24  0.249  0.750  0.470-  23 2.51   3 2.52   4 2.52  20 2.52  21 2.52   7 2.53  28 2.53   8 2.53
                            40 2.54  36 2.54  39 2.55  35 2.57
  25  0.500  1.000  0.470-  26 2.51   8 2.52   5 2.52  12 2.52  21 2.52   9 2.52  29 2.52  28 2.52
                            40 2.54  41 2.55  44 2.55  37 2.56
  26  0.500  0.249  0.469-  38 2.50   5 2.50   9 2.50  25 2.51   6 2.51  10 2.52  30 2.52  42 2.53
                            22 2.54  27 2.55  41 2.55  37 2.55
  27  0.500  0.501  0.469-  38 2.49   7 2.50  11 2.50  28 2.51   6 2.51  10 2.52  31 2.52  42 2.53
                            23 2.54  26 2.55  43 2.55  39 2.56
  28  0.500  0.750  0.470-  27 2.51   7 2.52  32 2.52   8 2.52  11 2.52  25 2.52  24 2.53  12 2.53
                            44 2.54  40 2.54  43 2.56  39 2.56
  29  0.750  1.000  0.470-  12 2.52  16 2.52   9 2.52  32 2.52  30 2.52  25 2.52  17 2.52  13 2.53
                            45 2.54  44 2.55  48 2.55  41 2.56
  30  0.750  0.250  0.470-   9 2.52  26 2.52  13 2.52  10 2.52  18 2.52  29 2.52  31 2.52  14 2.53
                            46 2.53  42 2.54  45 2.54  41 2.55
  31  0.750  0.500  0.470-  10 2.52  32 2.52  27 2.52  11 2.52  19 2.52  14 2.52  30 2.52  15 2.53
                            47 2.54  46 2.54  42 2.54  43 2.56
  32  0.750  0.750  0.470-  11 2.52  31 2.52  28 2.52  20 2.52  15 2.52  29 2.52  12 2.52  16 2.53
                            44 2.54  48 2.55  47 2.55  43 2.57
  33  0.125  0.126  0.531-  50 2.51  34 2.51  37 2.51  53 2.51  49 2.52  45 2.54  36 2.54  54 2.54
                            22 2.55  18 2.56  21 2.56  17 2.57
  34  0.125  0.375  0.531-  35 2.51  33 2.51  38 2.51  50 2.52  51 2.53  46 2.53  55 2.55  18 2.55
                            19 2.56  22 2.56  23 2.56  54 2.56
  35  0.124  0.623  0.531-  34 2.51  39 2.51  52 2.51  56 2.51  51 2.51  55 2.53  36 2.54  47 2.54
                            19 2.55  23 2.56  20 2.56  24 2.57
  36  0.124  0.875  0.530-  56 2.52  49 2.52  53 2.52  52 2.52  40 2.52  48 2.52  33 2.54  35 2.54
                            17 2.54  20 2.54  24 2.54  21 2.55
  37  0.374  0.127  0.530-  33 2.51  58 2.51  38 2.51  53 2.52  41 2.52  57 2.53  40 2.54  22 2.55
                            21 2.55  26 2.55  25 2.56  54 2.56
  38  0.373  0.375  0.527-  22 2.48  23 2.48  27 2.49  26 2.50  34 2.51  39 2.51  37 2.51  42 2.51
                            58 2.60  59 2.60  54 2.66  55 2.67
  39  0.373  0.623  0.530-  38 2.51  59 2.51  35 2.51  56 2.52  43 2.53  60 2.53  40 2.54  23 2.54
                            24 2.55  27 2.56  28 2.56  55 2.57
  40  0.374  0.875  0.530-  60 2.52  53 2.52  56 2.52  44 2.52  57 2.52  36 2.52  37 2.54  21 2.54
                            39 2.54  24 2.54  25 2.54  28 2.54
  41  0.624  0.125  0.531-  57 2.51  42 2.52  58 2.52  61 2.52  62 2.52  37 2.52  45 2.53  44 2.53
                            25 2.55  26 2.55  30 2.55  29 2.56
  42  0.622  0.375  0.529-  43 2.50  38 2.51  41 2.52  26 2.53  58 2.53  27 2.53  63 2.54  30 2.54
                            31 2.54  46 2.54  62 2.55  59 2.56
  43  0.623  0.623  0.531-  42 2.50  64 2.51  59 2.51  60 2.51  47 2.51  39 2.53  44 2.54  27 2.55
                            63 2.55  31 2.56  28 2.56  32 2.57
  44  0.624  0.874  0.530-  60 2.51  48 2.52  57 2.52  61 2.52  40 2.52  64 2.53  41 2.53  43 2.54
                            28 2.54  32 2.54  25 2.55  29 2.55
  45  0.874  0.125  0.530-  50 2.52  61 2.52  46 2.52  49 2.52  41 2.53  48 2.53  62 2.53  33 2.54
                            30 2.54  29 2.54  17 2.55  18 2.55
  46  0.874  0.374  0.530-  47 2.51  45 2.52  51 2.52  50 2.53  62 2.53  30 2.53  34 2.53  31 2.54
                            18 2.54  42 2.54  19 2.54  63 2.56
  47  0.872  0.623  0.531-  64 2.50  51 2.50  46 2.51  43 2.51  52 2.53  48 2.53  31 2.54  35 2.54
                            32 2.55  19 2.56  20 2.57  63 2.58
  48  0.874  0.874  0.531-  52 2.51  61 2.52  49 2.52  44 2.52  36 2.52  64 2.53  45 2.53  47 2.53
                            32 2.55  20 2.55  29 2.55  17 2.56
  49  0.999  1.000  0.590-  33 2.52  48 2.52  36 2.52  45 2.52  50 2.52  61 2.52  52 2.53  53 2.53

  50  0.999  0.250  0.590-  33 2.51  51 2.52  45 2.52  54 2.52  34 2.52  49 2.52  62 2.52  46 2.53

  51  0.997  0.499  0.590-  47 2.50  35 2.51  55 2.52  50 2.52  46 2.52  52 2.53  34 2.53  63 2.54

  52  0.999  0.749  0.590-  35 2.51  48 2.51  36 2.52  56 2.52  51 2.53  64 2.53  49 2.53  47 2.53

  53  0.250  1.000  0.590-  33 2.51  56 2.52  40 2.52  36 2.52  54 2.52  37 2.52  57 2.52  49 2.53

  54  0.248  0.249  0.592-  68 2.05  50 2.52  53 2.52  58 2.53  55 2.53  33 2.54  34 2.56  37 2.56
                            38 2.66
  55  0.246  0.500  0.592-  68 2.05  51 2.52  56 2.52  59 2.53  35 2.53  54 2.53  34 2.55  39 2.57
                            38 2.67
  56  0.249  0.750  0.590-  35 2.51  36 2.52  39 2.52  53 2.52  60 2.52  40 2.52  55 2.52  52 2.52

  57  0.500  0.000  0.590-  41 2.51  61 2.52  58 2.52  44 2.52  53 2.52  60 2.52  40 2.52  37 2.53

  58  0.498  0.250  0.590-  68 2.10  37 2.51  41 2.52  57 2.52  62 2.52  54 2.53  42 2.53  59 2.53
                            38 2.60
  59  0.496  0.501  0.590-  68 2.07  39 2.51  43 2.51  63 2.51  60 2.52  55 2.53  58 2.53  42 2.56
                            38 2.60
  60  0.499  0.750  0.590-  43 2.51  44 2.51  40 2.52  59 2.52  56 2.52  64 2.52  57 2.52  39 2.53

  61  0.749  1.000  0.590-  48 2.52  57 2.52  45 2.52  44 2.52  41 2.52  49 2.52  62 2.53  64 2.55

  62  0.749  0.250  0.590-  63 2.45  41 2.52  50 2.52  58 2.52  61 2.53  46 2.53  45 2.53  42 2.55

  63  0.745  0.493  0.592-  62 2.45  59 2.51  51 2.54  42 2.54  43 2.55  46 2.56  64 2.57  47 2.58

  64  0.749  0.747  0.590-  47 2.50  43 2.51  60 2.52  52 2.53  48 2.53  44 2.53  61 2.55  63 2.57

  65  0.680  0.356  0.636-  70 1.42
  66  0.645  0.238  0.682-  70 0.98
  67  0.534  0.352  0.678-  70 1.04
  68  0.372  0.376  0.626-  69 1.30  55 2.05  54 2.05  59 2.07  58 2.10
  69  0.385  0.377  0.669-  68 1.30
  70  0.636  0.334  0.680-  66 0.98  67 1.04  65 1.42
 
  LATTYP: Found a simple tetragonal cell.
 ALAT       =    10.0912000000
 C/A-ratio  =     2.9728872681
  
  Lattice vectors:
  
 A1 = (  10.0912000000,   0.0000000000,   0.0000000000)
 A2 = (   0.0000000000,  10.0912000000,   0.0000000000)
 A3 = (   0.0000000000,   0.0000000000,  30.0000000000)


Analysis of symmetry for initial positions (statically):
=====================================================================
 Subroutine PRICEL returns:
 Original cell was already a primitive cell.
 

 Routine SETGRP: Setting up the symmetry group for a 
 simple tetragonal supercell.


 Subroutine GETGRP returns: Found  1 space group operations
 (whereof  1 operations were pure point group operations)
 out of a pool of 16 trial point group operations.


The static configuration has the point symmetry C_1 .


Analysis of symmetry for dynamics (positions and initial velocities):
=====================================================================
 Subroutine PRICEL returns:
 Original cell was already a primitive cell.
 

 Routine SETGRP: Setting up the symmetry group for a 
 simple tetragonal supercell.


 Subroutine GETGRP returns: Found  1 space group operations
 (whereof  1 operations were pure point group operations)
 out of a pool of 16 trial point group operations.


The dynamic configuration has the point symmetry C_1 .


Analysis of constrained symmetry for selective dynamics:
=====================================================================
 Subroutine PRICEL returns:
 Original cell was already a primitive cell.
 

 Routine SETGRP: Setting up the symmetry group for a 
 simple tetragonal supercell.


 Subroutine GETGRP returns: Found  1 space group operations
 (whereof  1 operations were pure point group operations)
 out of a pool of 16 trial point group operations.


The constrained configuration has the point symmetry C_1 .


Analysis of structural, dynamic, and magnetic symmetry:
=====================================================================
 Subroutine PRICEL returns:
 Original cell was already a primitive cell.
 

 Routine SETGRP: Setting up the symmetry group for a 
 simple tetragonal supercell.


 Subroutine GETGRP returns: Found  1 space group operations
 (whereof  1 operations were pure point group operations)
 out of a pool of 16 trial point group operations.


The magnetic configuration has the point symmetry C_1 .


 Subroutine INISYM returns: Found  1 space group operations
 (whereof  1 operations are pure point group operations),
 and found     1 'primitive' translations

 
 
 KPOINTS: K-Point Grid                            

Automatic generation of k-mesh.
Space group operators:
 irot       det(A)        alpha          n_x          n_y          n_z        tau_x        tau_y        tau_z
    1     1.000000     0.000000     1.000000     0.000000     0.000000     0.000000     0.000000     0.000000
 
 Subroutine IBZKPT returns following result:
 ===========================================
 
 Found      8 irreducible k-points:
 
 Following reciprocal coordinates:
            Coordinates               Weight
  0.125000  0.125000  0.000000      2.000000
  0.375000  0.125000  0.000000      2.000000
 -0.375000  0.125000  0.000000      2.000000
 -0.125000  0.125000  0.000000      2.000000
  0.125000  0.375000  0.000000      2.000000
  0.375000  0.375000  0.000000      2.000000
 -0.375000  0.375000  0.000000      2.000000
 -0.125000  0.375000  0.000000      2.000000
 
 Following cartesian coordinates:
            Coordinates               Weight
  0.012387  0.012387  0.000000      2.000000
  0.037161  0.012387  0.000000      2.000000
 -0.037161  0.012387  0.000000      2.000000
 -0.012387  0.012387  0.000000      2.000000
  0.012387  0.037161  0.000000      2.000000
  0.037161  0.037161  0.000000      2.000000
 -0.037161  0.037161  0.000000      2.000000
 -0.012387  0.037161  0.000000      2.000000
 


--------------------------------------------------------------------------------------------------------




 Dimension of arrays:
   k-points           NKPTS =      8   k-points in BZ     NKDIM =      8   number of bands    NBANDS=    469
   number of dos      NEDOS =   1200   number of ions     NIONS =     70
   non local maximal  LDIM  =      6   non local SUM 2l+1 LMDIM =     18
   total plane-waves  NPLWV = 960400
   max r-space proj   IRMAX =   6495   max aug-charges    IRDMAX=   9304
   dimension x,y,z NGX =    70 NGY =   70 NGZ =  196
   dimension x,y,z NGXF=   140 NGYF=  140 NGZF=  392
   support grid    NGXF=   140 NGYF=  140 NGZF=  392
   ions per type =              64   3   1   2
   NGX,Y,Z   is equivalent  to a cutoff of  11.53, 11.53, 10.86 a.u.
   NGXF,Y,Z  is equivalent  to a cutoff of  23.06, 23.06, 21.72 a.u.

 SYSTEM =  Pd_111_surface                          
 POSCAR =  Cu H N O                                

 Startparameter for this run:
   NWRITE =      2    write-flag & timer
   PREC   = accura    normal or accurate (medium, high low for compatibility)
   ISTART =      0    job   : 0-new  1-cont  2-samecut
   ICHARG =      2    charge: 1-file 2-atom 10-const
   ISPIN  =      2    spin polarized calculation?
   LNONCOLLINEAR =      F non collinear calculations
   LSORBIT =      F    spin-orbit coupling
   INIWAV =      1    electr: 0-lowe 1-rand  2-diag
   LASPH  =      F    aspherical Exc in radial PAW
   METAGGA=      F    non-selfconsistent MetaGGA calc.

 Electronic Relaxation 1
   ENCUT  =  400.0 eV  29.40 Ry    5.42 a.u.  16.46 16.46 48.92*2*pi/ulx,y,z
   ENINI  =  400.0     initial cutoff
   ENAUG  =  627.1 eV  augmentation charge cutoff
   NELM   =    100;   NELMIN=  2; NELMDL= -5     # of ELM steps 
   EDIFF  = 0.1E-04   stopping-criterion for ELM
   LREAL  =      T    real-space projection
   NLSPLINE    = F    spline interpolate recip. space projectors
   LCOMPAT=      F    compatible to vasp.4.4
   GGA_COMPAT  = T    GGA compatible to vasp.4.4-vasp.4.6
   LMAXPAW     = -100 max onsite density
   LMAXMIX     =    2 max onsite mixed and CHGCAR
   VOSKOWN=      0    Vosko Wilk Nusair interpolation
   ROPT   =   -0.00025  -0.00025  -0.00025  -0.00025
 Ionic relaxation
   EDIFFG = -.5E-01   stopping-criterion for IOM
   NSW    =   1000    number of steps for IOM
   NBLOCK =      1;   KBLOCK =   1000    inner block; outer block 
   IBRION =      1    ionic relax: 0-MD 1-quasi-New 2-CG
   NFREE  =      0    steps in history (QN), initial steepest desc. (CG)
   ISIF   =      2    stress and relaxation
   IWAVPR =     11    prediction:  0-non 1-charg 2-wave 3-comb
   ISYM   =      2    0-nonsym 1-usesym 2-fastsym
   LCORR  =      T    Harris-Foulkes like correction to forces

   POTIM  = 0.3000    time-step for ionic-motion
   TEIN   =    0.0    initial temperature
   TEBEG  =    0.0;   TEEND  =   0.0 temperature during run
   SMASS  =  -3.00    Nose mass-parameter (am)
   estimated Nose-frequenzy (Omega)   =  0.10E-29 period in steps =****** mass=  -0.233E-26a.u.
   SCALEE = 1.0000    scale energy and forces
   NPACO  =    256;   APACO  = 16.0  distance and # of slots for P.C.
   PSTRESS=    0.0 pullay stress

  Mass of Ions in am
   POMASS =  63.55  1.00 14.00 16.00
  Ionic Valenz
   ZVAL   =  11.00  1.00  5.00  6.00
  Atomic Wigner-Seitz radii
   RWIGS  =  -1.00 -1.00 -1.00 -1.00
  virtual crystal weights 
   VCA    =   1.00  1.00  1.00  1.00
   NELECT =     724.0000    total number of electrons
   NUPDOWN=      -1.0000    fix difference up-down

 DOS related values:
   EMIN   =  10.00;   EMAX   =-10.00  energy-range for DOS
   EFERMI =   0.00
   ISMEAR =     1;   SIGMA  =   0.20  broadening in eV -4-tet -1-fermi 0-gaus

 Electronic relaxation 2 (details)
   IALGO  =     68    algorithm
   LDIAG  =      T    sub-space diagonalisation (order eigenvalues)
   LSUBROT=      F    optimize rotation matrix (better conditioning)
   TURBO    =      0    0=normal 1=particle mesh
   IRESTART =      0    0=no restart 2=restart with 2 vectors
   NREBOOT  =      0    no. of reboots
   NMIN     =      0    reboot dimension
   EREF     =   0.00    reference energy to select bands
   IMIX   =      4    mixing-type and parameters
     AMIX     =   0.40;   BMIX     =  1.00
     AMIX_MAG =   1.60;   BMIX_MAG =  1.00
     AMIN     =   0.10
     WC   =   100.;   INIMIX=   1;  MIXPRE=   1;  MAXMIX= -45

 Intra band minimization:
   WEIMIN = 0.0010     energy-eigenvalue tresh-hold
   EBREAK =  0.53E-08  absolut break condition
   DEPER  =   0.30     relativ break condition  

   TIME   =   0.40     timestep for ELM

  volume/ion in A,a.u.               =      43.64       294.51
  Fermi-wavevector in a.u.,A,eV,Ry     =   1.013099  1.914480 13.964617  1.026370
  Thomas-Fermi vector in A             =   2.146248
 
 Write flags
   LWAVE        =      F    write WAVECAR
   LDOWNSAMPLE  =      F    k-point downsampling of WAVECAR
   LCHARG       =      F    write CHGCAR
   LVTOT        =      F    write LOCPOT, total local potential
   LVHAR        =      F    write LOCPOT, Hartree potential only
   LELF         =      F    write electronic localiz. function (ELF)
   LORBIT       =     11    0 simple, 1 ext, 2 COOP (PROOUT), +10 PAW based schemes


 Dipole corrections
   LMONO  =      F    monopole corrections only (constant potential shift)
   LDIPOL =      T    correct potential (dipole corrections)
   IDIPOL =      3    1-x, 2-y, 3-z, 4-all directions 
   EPSILON=  1.0000000 bulk dielectric constant

 Exchange correlation treatment:
   GGA     =    --    GGA type
   LEXCH   =     8    internal setting for exchange type
   VOSKOWN=      0    Vosko Wilk Nusair interpolation
   LHFCALC =     F    Hartree Fock is set to
   LHFONE  =     F    Hartree Fock one center treatment
   AEXX    =    0.0000 exact exchange contribution

 Linear response parameters
   LEPSILON=     F    determine dielectric tensor
   LRPA    =     F    only Hartree local field effects (RPA)
   LNABLA  =     F    use nabla operator in PAW spheres
   LVEL    =     F    velocity operator in full k-point grid
   LINTERFAST=   F  fast interpolation
   KINTER  =     0    interpolate to denser k-point grid
   CSHIFT  =0.1000    complex shift for real part using Kramers Kronig
   OMEGAMAX=  -1.0    maximum frequency
   DEG_THRESHOLD= 0.2000000E-02 threshold for treating states as degnerate
   RTIME   =   -0.100 relaxation time in fs
  (WPLASMAI=    0.000 imaginary part of plasma frequency in eV, 0.658/RTIME)
   DFIELD  = 0.0000000 0.0000000 0.0000000 field for delta impulse in time
 
 Orbital magnetization related:
   ORBITALMAG=     F  switch on orbital magnetization
   LCHIMAG   =     F  perturbation theory with respect to B field
   DQ        =  0.001000  dq finite difference perturbation B field
   LLRAUG    =     F  two centre corrections for induced B field



--------------------------------------------------------------------------------------------------------


 quasi-Newton-method for relaxation of ions
   using selective dynamics as specified on POSCAR
 charge density and potential will be updated during run
 spin polarized calculation
 RMM-DIIS sequential band-by-band and
  variant of blocked Davidson during initial phase
 perform sub-space diagonalisation
    before iterative eigenvector-optimisation
 modified Broyden-mixing scheme, WC =      100.0
 initial mixing is a Kerker type mixing with AMIX =  0.4000 and BMIX =      1.0000
 Hartree-type preconditioning will be used
 using additional bands          107
 real space projection scheme for non local part
 use partial core corrections
 calculate Harris-corrections to forces 
   (improved forces if not selfconsistent)
 use gradient corrections 
 use of overlap-Matrix (Vanderbilt PP)
 Methfessel and Paxton  Order N= 1 SIGMA  =   0.20


--------------------------------------------------------------------------------------------------------


  energy-cutoff  :      400.00
  volume of cell :     3054.97
      direct lattice vectors                 reciprocal lattice vectors
    10.091200000  0.000000000  0.000000000     0.099096242  0.000000000  0.000000000
     0.000000000 10.091200000  0.000000000     0.000000000  0.099096242  0.000000000
     0.000000000  0.000000000 30.000000000     0.000000000  0.000000000  0.033333333

  length of vectors
    10.091200000 10.091200000 30.000000000     0.099096242  0.099096242  0.033333333


 
 k-points in units of 2pi/SCALE and weight: K-Point Grid                            
   0.01238703  0.01238703  0.00000000       0.125
   0.03716109  0.01238703  0.00000000       0.125
  -0.03716109  0.01238703  0.00000000       0.125
  -0.01238703  0.01238703  0.00000000       0.125
   0.01238703  0.03716109  0.00000000       0.125
   0.03716109  0.03716109  0.00000000       0.125
  -0.03716109  0.03716109  0.00000000       0.125
  -0.01238703  0.03716109  0.00000000       0.125
 
 k-points in reciprocal lattice and weights: K-Point Grid                            
   0.12500000  0.12500000  0.00000000       0.125
   0.37500000  0.12500000  0.00000000       0.125
  -0.37500000  0.12500000  0.00000000       0.125
  -0.12500000  0.12500000  0.00000000       0.125
   0.12500000  0.37500000  0.00000000       0.125
   0.37500000  0.37500000  0.00000000       0.125
  -0.37500000  0.37500000  0.00000000       0.125
  -0.12500000  0.37500000  0.00000000       0.125
 
 position of ions in fractional coordinates (direct lattice) 
   0.12502405  0.12499658  0.41038952
   0.12501969  0.37500943  0.41038081
   0.12501696  0.62503072  0.41038575
   0.12502252  0.87501719  0.41039422
   0.37502262  0.12501059  0.41041201
   0.37502284  0.37501055  0.41040615
   0.37501742  0.62502258  0.41040570
   0.37501584  0.87502197  0.41041060
   0.62497778  0.12501268  0.41041201
   0.62497544  0.37501043  0.41041042
   0.62497708  0.62501645  0.41040733
   0.62497966  0.87501825  0.41040907
   0.87497648  0.12499970  0.41039080
   0.87496942  0.37500938  0.41038528
   0.87497305  0.62502388  0.41038886
   0.87498044  0.87501373  0.41039344
   0.99986767  0.99990302  0.46990126
   0.99978733  0.24973882  0.46981921
   0.99944751  0.49995315  0.46984232
   0.99940593  0.74944926  0.47001180
   0.24960327  0.00000637  0.46986141
   0.24842971  0.24920005  0.46934671
   0.24820919  0.50074347  0.46935220
   0.24940239  0.74994515  0.46985075
   0.49964037  0.99985445  0.46981079
   0.49996264  0.24884823  0.46922991
   0.49988084  0.50107529  0.46925361
   0.49964494  0.74968642  0.46989592
   0.74975359  0.99955934  0.46983268
   0.74975064  0.24965887  0.46981720
   0.74952360  0.49986860  0.46982245
   0.74952481  0.74950692  0.46988736
   0.12530168  0.12633463  0.53110923
   0.12495987  0.37477600  0.53069493
   0.12413485  0.62320417  0.53114004
   0.12437397  0.87483083  0.53034077
   0.37377158  0.12664765  0.53047480
   0.37314550  0.37503853  0.52669926
   0.37284384  0.62330523  0.53049429
   0.37444433  0.87503116  0.53016196
   0.62376573  0.12522682  0.53053015
   0.62197065  0.37462413  0.52947252
   0.62314989  0.62279137  0.53105875
   0.62448521  0.87420961  0.53037309
   0.87403802  0.12473429  0.53040968
   0.87377634  0.37431162  0.52998057
   0.87228992  0.62284361  0.53085309
   0.87420142  0.87400003  0.53066583
   0.99943624  0.99983375  0.58968607
   0.99855045  0.24979776  0.58976104
   0.99657622  0.49927479  0.58980162
   0.99916854  0.74948023  0.58969762
   0.24981316  0.99969098  0.58962023
   0.24819008  0.24933919  0.59225861
   0.24592902  0.50043235  0.59225345
   0.24936384  0.75019755  0.58954862
   0.49970276  0.00019307  0.58955102
   0.49838026  0.24990306  0.58972120
   0.49645200  0.50076154  0.59017187
   0.49911753  0.75028015  0.58951696
   0.74922302  0.99974273  0.58971638
   0.74855131  0.25037081  0.58998176
   0.74527579  0.49317024  0.59153114
   0.74888096  0.74729434  0.58978981
   0.67997992  0.35563805  0.63566014
   0.64501182  0.23775902  0.68172295
   0.53390281  0.35202253  0.67831984
   0.37183391  0.37632649  0.62577315
   0.38541537  0.37723915  0.66870122
   0.63556342  0.33429740  0.67987908
 
 position of ions in cartesian coordinates  (Angst):
   1.26164268  1.26136549 12.31168560
   1.26159872  3.78429516 12.31142440
   1.26157114  6.30730996 12.31157259
   1.26162722  8.82997351 12.31182662
   3.78442830  1.26150691 12.31236030
   3.78443049  3.78430643 12.31218436
   3.78437579  6.30722786 12.31217089
   3.78435983  8.83002174 12.31231809
   6.30677574  1.26152792 12.31236029
   6.30675211  3.78430523 12.31231253
   6.30676867  6.30716600 12.31221996
   6.30679475  8.82998419 12.31227212
   8.82956268  1.26139699 12.31172393
   8.82949138  3.78429468 12.31155826
   8.82952805  6.30724097 12.31166586
   8.82960264  8.82993856 12.31180330
  10.08986463 10.09022135 14.09703782
  10.08905388  2.52016441 14.09457619
  10.08562474  5.04512725 14.09526955
  10.08520507  7.56284234 14.10035397
   2.51879652  0.00006427 14.09584223
   2.50695389  2.51472749 14.08040139
   2.50472858  5.05310252 14.08056593
   2.51676936  7.56784648 14.09552244
   5.04197090 10.08973122 14.09432378
   5.04522300  2.51117724 14.07689732
   5.04439749  5.05645097 14.07760820
   5.04201702  7.56523562 14.09687750
   7.56591338 10.08675320 14.09498037
   7.56588365  2.51935762 14.09451612
   7.56359259  5.04427405 14.09467358
   7.56360478  7.56342422 14.09662093
   1.26444429  1.27486804 15.93327681
   1.26099501  3.78193956 15.92084786
   1.25266957  6.28887793 15.93420132
   1.25508260  8.82809290 15.91022319
   3.77180380  1.27802674 15.91424392
   3.76548591  3.78458877 15.80097781
   3.76244178  6.28989769 15.91482884
   3.77859266  8.83011441 15.90485887
   6.29454474  1.26368892 15.91590455
   6.27643024  3.78040702 15.88417568
   6.28833014  6.28471225 15.93176263
   6.30180510  8.82182399 15.91119258
   8.82009246  1.25871863 15.91229055
   8.81745176  3.77725339 15.89941710
   8.80245208  6.28523942 15.92559263
   8.82174141  8.81970906 15.91997481
  10.08551097 10.08952231 17.69058212
  10.07657231  2.52075916 17.69283117
  10.05664996  5.03828179 17.69404866
  10.08280956  7.56315485 17.69092849
   2.52091457 10.08808161 17.68860695
   2.50453573  2.51613166 17.76775832
   2.48171889  5.04996296 17.76760341
   2.51638038  7.57039347 17.68645873
   5.04260049  0.00194830 17.68653069
   5.02925491  2.52182177 17.69163609
   5.00979641  5.05328484 17.70515600
   5.03669481  7.57122706 17.68550868
   7.56055934 10.08860379 17.69149136
   7.55378101  2.52654189 17.69945275
   7.52072701  4.97667953 17.74593406
   7.55710755  7.54109659 17.69369424
   6.86181340  3.58881465 19.06980434
   6.50894324  2.39927385 20.45168863
   5.38772008  3.55232971 20.34959530
   3.75225036  3.79758591 18.77319446
   3.88930361  3.80679572 20.06103658
   6.41359755  3.37346189 20.39637232
 


--------------------------------------------------------------------------------------------------------


 k-point  1 :   0.1250 0.1250 0.0000  plane waves:   55537
 k-point  2 :   0.3750 0.1250 0.0000  plane waves:   55487
 k-point  3 :  -0.3750 0.1250 0.0000  plane waves:   55487
 k-point  4 :  -0.1250 0.1250 0.0000  plane waves:   55537
 k-point  5 :   0.1250 0.3750 0.0000  plane waves:   55487
 k-point  6 :   0.3750 0.3750 0.0000  plane waves:   55438
 k-point  7 :  -0.3750 0.3750 0.0000  plane waves:   55438
 k-point  8 :  -0.1250 0.3750 0.0000  plane waves:   55487

 maximum and minimum number of plane-waves per node :      4665     4602

 maximum number of plane-waves:     55537
 maximum index in each direction: 
   IXMAX=   16   IYMAX=   16   IZMAX=   48
   IXMIN=  -16   IYMIN=  -16   IZMIN=  -48


 real space projection operators:
  total allocation   :      44448.56 KBytes
  max/ min on nodes  :       3837.23       3188.30


 parallel 3D FFT for wavefunctions:
    minimum data exchange during FFTs selected (reduces bandwidth)
 parallel 3D FFT for charge:
    minimum data exchange during FFTs selected (reduces bandwidth)


 total amount of memory used by VASP MPI-rank0   706470. kBytes
=======================================================================

   base      :      30000. kBytes
   nonlr-proj:      12417. kBytes
   fftplans  :      24435. kBytes
   grid      :      70089. kBytes
   one-center:        186. kBytes
   wavefun   :     569343. kBytes
 
     INWAV:  cpu time    0.0001: real time    0.0010
 Broyden mixing: mesh for mixing (old mesh)
   NGX = 33   NGY = 33   NGZ = 97
  (NGX  =140   NGY  =140   NGZ  =392)
  gives a total of 105633 points

 initial charge density was supplied:
 charge density of overlapping atoms calculated
 number of electron     724.0000000 magnetization      70.0000000
 keeping initial charge density in first step


--------------------------------------------------------------------------------------------------------


 Maximum index for non-local projection operator          501
 Maximum index for augmentation-charges          906 (set IRDMAX)


--------------------------------------------------------------------------------------------------------


 First call to EWALD:  gamma=   0.122
 Maximum number of real-space cells 4x 4x 2
 Maximum number of reciprocal cells 2x 2x 5

    FEWALD:  cpu time    0.0403: real time    0.0355


--------------------------------------- Iteration      1(   1)  ---------------------------------------


    POTLOK:  cpu time    1.0012: real time    1.6332
    SETDIJ:  cpu time    0.2416: real time    0.2273
     EDDAV:  cpu time  299.8240: real time  151.3742
       DOS:  cpu time    0.1348: real time    3.9154
    --------------------------------------------
      LOOP:  cpu time  301.2017: real time  157.1502

 eigenvalue-minimisations  : 15016
 total energy-change (2. order) : 0.6354155E+04  (-0.2536964E+05)
 number of electron     724.0000000 magnetization      70.0000000
 augmentation part      724.0000000 magnetization      70.0000000

 DIPCOR: dipole corrections for dipol
 direction  3 min pos     1,
 dipolmoment           0.000000      0.000000     -0.000137 electrons x Angstroem
 Tr[quadrupol]    -12835.572614

 energy correction for charged system         0.000000 eV
 dipol+quadrupol energy correction           -0.000000 eV
 added-field ion interaction          0.000805 eV  (added to PSCEN)


 Free energy of the ion-electron system (eV)
  ---------------------------------------------------
  alpha Z        PSCENC =      1026.21298821
  Ewald energy   TEWEN  =    592145.81907732
  -Hartree energ DENC   =   -677087.13824817
  -exchange      EXHF   =         0.00000000
  -V(xc)+E(xc)   XCENC  =      3007.90437586
  PAW double counting   =     79501.23104798   -86278.72865590
  entropy T*S    EENTRO =         0.00227725
  eigenvalues    EBANDS =      3851.12552464
  atomic energy  EATOM  =     90187.72626527
  Solvation  Ediel_sol  =         0.00000000
  ---------------------------------------------------
  free energy    TOTEN  =      6354.15465245 eV

  energy without entropy =     6354.15237521  energy(sigma->0) =     6354.15389337


--------------------------------------------------------------------------------------------------------




--------------------------------------- Iteration      1(   2)  ---------------------------------------


     EDDAV:  cpu time  301.0622: real time  151.1702
       DOS:  cpu time    0.1391: real time    0.0776
    --------------------------------------------
      LOOP:  cpu time  301.2014: real time  151.2478

 eigenvalue-minimisations  : 15008
 total energy-change (2. order) :-0.5813379E+04  (-0.5538836E+04)
 number of electron     724.0000000 magnetization      70.0000000
 augmentation part      724.0000000 magnetization      70.0000000

 DIPCOR: dipole corrections for dipol
 direction  3 min pos     1,
 dipolmoment           0.000000      0.000000     -0.000137 electrons x Angstroem
 Tr[quadrupol]    -12835.572614

 energy correction for charged system         0.000000 eV
 dipol+quadrupol energy correction           -0.000000 eV
 added-field ion interaction          0.000805 eV  (added to PSCEN)


 Free energy of the ion-electron system (eV)
  ---------------------------------------------------
  alpha Z        PSCENC =      1026.21298821
  Ewald energy   TEWEN  =    592145.81907732
  -Hartree energ DENC   =   -677087.13824817
  -exchange      EXHF   =         0.00000000
  -V(xc)+E(xc)   XCENC  =      3007.90437586
  PAW double counting   =     79501.23104798   -86278.72865590
  entropy T*S    EENTRO =        -0.00325819
  eigenvalues    EBANDS =     -1962.24823207
  atomic energy  EATOM  =     90187.72626527
  Solvation  Ediel_sol  =         0.00000000
  ---------------------------------------------------
  free energy    TOTEN  =       540.77536031 eV

  energy without entropy =      540.77861850  energy(sigma->0) =      540.77644637


--------------------------------------------------------------------------------------------------------




--------------------------------------- Iteration      1(   3)  ---------------------------------------


     EDDAV:  cpu time  317.7647: real time  159.4935
       DOS:  cpu time    0.1683: real time    0.1762
    --------------------------------------------
      LOOP:  cpu time  317.9329: real time  159.6697

 eigenvalue-minimisations  : 16201
 total energy-change (2. order) :-0.7418721E+03  (-0.6817980E+03)
 number of electron     724.0000000 magnetization      70.0000000
 augmentation part      724.0000000 magnetization      70.0000000

 DIPCOR: dipole corrections for dipol
 direction  3 min pos     1,
 dipolmoment           0.000000      0.000000     -0.000137 electrons x Angstroem
 Tr[quadrupol]    -12835.572614

 energy correction for charged system         0.000000 eV
 dipol+quadrupol energy correction           -0.000000 eV
 added-field ion interaction          0.000805 eV  (added to PSCEN)


 Free energy of the ion-electron system (eV)
  ---------------------------------------------------
  alpha Z        PSCENC =      1026.21298821
  Ewald energy   TEWEN  =    592145.81907732
  -Hartree energ DENC   =   -677087.13824817
  -exchange      EXHF   =         0.00000000
  -V(xc)+E(xc)   XCENC  =      3007.90437586
  PAW double counting   =     79501.23104798   -86278.72865590
  entropy T*S    EENTRO =         0.01243776
  eigenvalues    EBANDS =     -2704.13605145
  atomic energy  EATOM  =     90187.72626527
  Solvation  Ediel_sol  =         0.00000000
  ---------------------------------------------------
  free energy    TOTEN  =      -201.09676312 eV

  energy without entropy =     -201.10920088  energy(sigma->0) =     -201.10090904


--------------------------------------------------------------------------------------------------------




--------------------------------------- Iteration      1(   4)  ---------------------------------------


     EDDAV:  cpu time  422.0534: real time  211.9227
       DOS:  cpu time    0.1732: real time    0.1081
    --------------------------------------------
      LOOP:  cpu time  422.2267: real time  212.0308

 eigenvalue-minimisations  : 23456
 total energy-change (2. order) :-0.8502936E+02  (-0.7792405E+02)
 number of electron     724.0000000 magnetization      70.0000000
 augmentation part      724.0000000 magnetization      70.0000000

 DIPCOR: dipole corrections for dipol
 direction  3 min pos     1,
 dipolmoment           0.000000      0.000000     -0.000137 electrons x Angstroem
 Tr[quadrupol]    -12835.572614

 energy correction for charged system         0.000000 eV
 dipol+quadrupol energy correction           -0.000000 eV
 added-field ion interaction          0.000805 eV  (added to PSCEN)


 Free energy of the ion-electron system (eV)
  ---------------------------------------------------
  alpha Z        PSCENC =      1026.21298821
  Ewald energy   TEWEN  =    592145.81907732
  -Hartree energ DENC   =   -677087.13824817
  -exchange      EXHF   =         0.00000000
  -V(xc)+E(xc)   XCENC  =      3007.90437586
  PAW double counting   =     79501.23104798   -86278.72865590
  entropy T*S    EENTRO =         0.07534601
  eigenvalues    EBANDS =     -2789.22831905
  atomic energy  EATOM  =     90187.72626527
  Solvation  Ediel_sol  =         0.00000000
  ---------------------------------------------------
  free energy    TOTEN  =      -286.12612247 eV

  energy without entropy =     -286.20146848  energy(sigma->0) =     -286.15123781


--------------------------------------------------------------------------------------------------------




--------------------------------------- Iteration      1(   5)  ---------------------------------------


     EDDAV:  cpu time  409.4399: real time  205.5528
       DOS:  cpu time    0.1696: real time    0.1048
    CHARGE:  cpu time    7.5781: real time    8.0944
    MIXING:  cpu time    0.0468: real time    0.0976
    --------------------------------------------
      LOOP:  cpu time  417.2344: real time  213.8496

 eigenvalue-minimisations  : 22280
 total energy-change (2. order) :-0.4736851E+01  (-0.4666119E+01)
 number of electron     724.0000729 magnetization      66.0956227
 augmentation part      418.3399887 magnetization      64.4872080

 DIPCOR: dipole corrections for dipol
 direction  3 min pos     1,
 dipolmoment           0.000000      0.000000     -0.000137 electrons x Angstroem
 Tr[quadrupol]    -12835.572614

 energy correction for charged system         0.000000 eV
 dipol+quadrupol energy correction           -0.000000 eV
 added-field ion interaction          0.000805 eV  (added to PSCEN)


 Broyden mixing:
  rms(total) = 0.76054E+01    rms(broyden)= 0.76046E+01
  rms(prec ) = 0.77698E+01
  weight for this iteration     100.00

 Free energy of the ion-electron system (eV)
  ---------------------------------------------------
  alpha Z        PSCENC =      1026.21298821
  Ewald energy   TEWEN  =    592145.81907732
  -Hartree energ DENC   =   -677087.13824817
  -exchange      EXHF   =         0.00000000
  -V(xc)+E(xc)   XCENC  =      3007.90437586
  PAW double counting   =     79501.23104798   -86278.72865590
  entropy T*S    EENTRO =         0.08777028
  eigenvalues    EBANDS =     -2793.97759422
  atomic energy  EATOM  =     90187.72626527
  Solvation  Ediel_sol  =         0.00000000
  ---------------------------------------------------
  free energy    TOTEN  =      -290.86297338 eV

  energy without entropy =     -290.95074365  energy(sigma->0) =     -290.89223014


--------------------------------------------------------------------------------------------------------




--------------------------------------- Iteration      1(   6)  ---------------------------------------


    POTLOK:  cpu time    0.8340: real time    0.9365
    SETDIJ:  cpu time    0.2368: real time    0.3030
    EDDIAG:  cpu time   47.9704: real time   24.1353
  RMM-DIIS:  cpu time  202.7292: real time  102.2797
    ORTHCH:  cpu time    7.3316: real time    3.7119
       DOS:  cpu time    0.1702: real time    0.1013
    CHARGE:  cpu time    7.2790: real time    7.1679
    MIXING:  cpu time    0.0626: real time    0.0427
    --------------------------------------------
      LOOP:  cpu time  266.6140: real time  138.6783

 eigenvalue-minimisations  : 15092
 total energy-change (2. order) : 0.6060622E+02  (-0.7426529E+02)
 number of electron     724.0000811 magnetization      63.6241284
 augmentation part      473.5514845 magnetization      48.0971546

 DIPCOR: dipole corrections for dipol
 direction  3 min pos     1,
 dipolmoment           0.000000      0.000000      0.430782 electrons x Angstroem
 Tr[quadrupol]    -12833.291611

 energy correction for charged system         0.000000 eV
 dipol+quadrupol energy correction           -0.005496 eV
 added-field ion interaction         -2.537481 eV  (added to PSCEN)


 Broyden mixing:
  rms(total) = 0.43444E+01    rms(broyden)= 0.43422E+01
  rms(prec ) = 0.45364E+01
  weight for this iteration     100.00

 eigenvalues of (default mixing * dielectric matrix)
  average eigenvalue GAMMA=   0.7677
  0.7677

 Free energy of the ion-electron system (eV)
  ---------------------------------------------------
  alpha Z        PSCENC =      1023.66920678
  Ewald energy   TEWEN  =    592145.81907732
  -Hartree energ DENC   =   -675271.31194820
  -exchange      EXHF   =         0.00000000
  -V(xc)+E(xc)   XCENC  =      2955.85192771
  PAW double counting   =     80758.40458020   -87191.58409317
  entropy T*S    EENTRO =        -0.04274665
  eigenvalues    EBANDS =     -4838.78902101
  atomic energy  EATOM  =     90187.72626527
  Solvation  Ediel_sol  =         0.00000000
  ---------------------------------------------------
  free energy    TOTEN  =      -230.25675176 eV

  energy without entropy =     -230.21400511  energy(sigma->0) =     -230.24250288


--------------------------------------------------------------------------------------------------------




--------------------------------------- Iteration      1(   7)  ---------------------------------------


    POTLOK:  cpu time    0.9461: real time    0.9064
    SETDIJ:  cpu time    0.1022: real time    0.0773
    EDDIAG:  cpu time   49.3944: real time   24.8406
  RMM-DIIS:  cpu time  203.1417: real time  101.9969
    ORTHCH:  cpu time    7.2759: real time    3.6622
       DOS:  cpu time    0.1653: real time    0.1038
    CHARGE:  cpu time    7.4986: real time    7.4369
    MIXING:  cpu time    0.0603: real time    0.0407
    --------------------------------------------
      LOOP:  cpu time  268.5846: real time  139.0648

 eigenvalue-minimisations  : 15200
 total energy-change (2. order) : 0.3752238E+02  (-0.1614739E+02)
 number of electron     724.0000773 magnetization      60.9568250
 augmentation part      449.8391216 magnetization      43.9697047

 DIPCOR: dipole corrections for dipol
 direction  3 min pos     1,
 dipolmoment           0.000000      0.000000     -0.706672 electrons x Angstroem
 Tr[quadrupol]    -12842.340094

 energy correction for charged system         0.000000 eV
 dipol+quadrupol energy correction           -0.014790 eV
 added-field ion interaction          4.162589 eV  (added to PSCEN)


 Broyden mixing:
  rms(total) = 0.20901E+01    rms(broyden)= 0.20871E+01
  rms(prec ) = 0.22380E+01
  weight for this iteration     100.00

 eigenvalues of (default mixing * dielectric matrix)
  average eigenvalue GAMMA=   0.7828
  1.0146  0.5509

 Free energy of the ion-electron system (eV)
  ---------------------------------------------------
  alpha Z        PSCENC =      1030.35998305
  Ewald energy   TEWEN  =    592145.81907732
  -Hartree energ DENC   =   -676409.91185158
  -exchange      EXHF   =         0.00000000
  -V(xc)+E(xc)   XCENC  =      2991.81800689
  PAW double counting   =     82712.50030887   -89484.04957589
  entropy T*S    EENTRO =         0.01083782
  eigenvalues    EBANDS =     -3367.00741989
  atomic energy  EATOM  =     90187.72626527
  Solvation  Ediel_sol  =         0.00000000
  ---------------------------------------------------
  free energy    TOTEN  =      -192.73436814 eV

  energy without entropy =     -192.74520596  energy(sigma->0) =     -192.73798075


--------------------------------------------------------------------------------------------------------




--------------------------------------- Iteration      1(   8)  ---------------------------------------


    POTLOK:  cpu time    0.9237: real time    0.9464
    SETDIJ:  cpu time    0.1010: real time    0.0760
    EDDIAG:  cpu time   48.9738: real time   24.5951
  RMM-DIIS:  cpu time  202.6438: real time  101.7078
    ORTHCH:  cpu time    7.3585: real time    3.7418
       DOS:  cpu time    0.1785: real time    0.1093
    CHARGE:  cpu time    7.4775: real time    7.6980
    MIXING:  cpu time    0.0495: real time    0.0289
    --------------------------------------------
      LOOP:  cpu time  267.7063: real time  138.9033

 eigenvalue-minimisations  : 15157
 total energy-change (2. order) : 0.7928958E+01  (-0.1798631E+01)
 number of electron     724.0000774 magnetization      59.1022494
 augmentation part      449.4123481 magnetization      40.2776661

 DIPCOR: dipole corrections for dipol
 direction  3 min pos     1,
 dipolmoment           0.000000      0.000000      0.824871 electrons x Angstroem
 Tr[quadrupol]    -12843.436885

 energy correction for charged system         0.000000 eV
 dipol+quadrupol energy correction           -0.020151 eV
 added-field ion interaction         -4.858827 eV  (added to PSCEN)


 Broyden mixing:
  rms(total) = 0.21453E+01    rms(broyden)= 0.21446E+01
  rms(prec ) = 0.24787E+01
  weight for this iteration     100.00

 eigenvalues of (default mixing * dielectric matrix)
  average eigenvalue GAMMA=   0.6435
  1.0594  0.5475  0.3234

 Free energy of the ion-electron system (eV)
  ---------------------------------------------------
  alpha Z        PSCENC =      1021.33320517
  Ewald energy   TEWEN  =    592145.81907732
  -Hartree energ DENC   =   -676473.14531496
  -exchange      EXHF   =         0.00000000
  -V(xc)+E(xc)   XCENC  =      2996.81831941
  PAW double counting   =     83655.98890294   -90481.47861803
  entropy T*S    EENTRO =         0.00692542
  eigenvalues    EBANDS =     -3237.87417287
  atomic energy  EATOM  =     90187.72626527
  Solvation  Ediel_sol  =         0.00000000
  ---------------------------------------------------
  free energy    TOTEN  =      -184.80541033 eV

  energy without entropy =     -184.81233575  energy(sigma->0) =     -184.80771880


--------------------------------------------------------------------------------------------------------




--------------------------------------- Iteration      1(   9)  ---------------------------------------


    POTLOK:  cpu time    0.8757: real time    1.0371
    SETDIJ:  cpu time    0.2353: real time    0.2732
    EDDIAG:  cpu time   49.8525: real time   25.3307
  RMM-DIIS:  cpu time  202.5844: real time  101.6811
    ORTHCH:  cpu time    7.3072: real time    3.6923
       DOS:  cpu time    0.1637: real time    0.0968
    CHARGE:  cpu time    7.4820: real time    7.4009
    MIXING:  cpu time    0.0797: real time    0.0605
    --------------------------------------------
      LOOP:  cpu time  268.5806: real time  139.5726

 eigenvalue-minimisations  : 15146
 total energy-change (2. order) : 0.1022134E+02  (-0.9482217E+00)
 number of electron     724.0000777 magnetization      52.6667637
 augmentation part      450.8053752 magnetization      34.2281242

 DIPCOR: dipole corrections for dipol
 direction  3 min pos     1,
 dipolmoment           0.000000      0.000000     -0.266424 electrons x Angstroem
 Tr[quadrupol]    -12845.521186

 energy correction for charged system         0.000000 eV
 dipol+quadrupol energy correction           -0.002102 eV
 added-field ion interaction          1.569348 eV  (added to PSCEN)


 Broyden mixing:
  rms(total) = 0.15570E+01    rms(broyden)= 0.15565E+01
  rms(prec ) = 0.16201E+01
  weight for this iteration     100.00

 eigenvalues of (default mixing * dielectric matrix)
  average eigenvalue GAMMA=   0.8039
  1.4296  0.9390  0.6108  0.2364

 Free energy of the ion-electron system (eV)
  ---------------------------------------------------
  alpha Z        PSCENC =      1027.77942947
  Ewald energy   TEWEN  =    592145.81907732
  -Hartree energ DENC   =   -676536.37209123
  -exchange      EXHF   =         0.00000000
  -V(xc)+E(xc)   XCENC  =      2997.61456956
  PAW double counting   =     84183.94900971   -91034.68452042
  entropy T*S    EENTRO =         0.00253610
  eigenvalues    EBANDS =     -3146.41834821
  atomic energy  EATOM  =     90187.72626527
  Solvation  Ediel_sol  =         0.00000000
  ---------------------------------------------------
  free energy    TOTEN  =      -174.58407244 eV

  energy without entropy =     -174.58660853  energy(sigma->0) =     -174.58491780


--------------------------------------------------------------------------------------------------------




--------------------------------------- Iteration      1(  10)  ---------------------------------------


    POTLOK:  cpu time    0.8892: real time    0.9475
    SETDIJ:  cpu time    0.1196: real time    0.1021
    EDDIAG:  cpu time   49.4866: real time   24.8517
  RMM-DIIS:  cpu time  203.6005: real time  102.2901
    ORTHCH:  cpu time    7.3549: real time    3.7322
       DOS:  cpu time    0.2093: real time    0.1393
    CHARGE:  cpu time    7.7099: real time    7.6456
    MIXING:  cpu time    0.0495: real time    0.0262
    --------------------------------------------
      LOOP:  cpu time  269.4195: real time  139.7347

 eigenvalue-minimisations  : 15248
 total energy-change (2. order) : 0.8368645E+01  (-0.1556365E+01)
 number of electron     724.0000776 magnetization      50.7204464
 augmentation part      451.6667488 magnetization      31.5492908

 DIPCOR: dipole corrections for dipol
 direction  3 min pos     1,
 dipolmoment           0.000000      0.000000      0.018543 electrons x Angstroem
 Tr[quadrupol]    -12849.195243

 energy correction for charged system         0.000000 eV
 dipol+quadrupol energy correction           -0.000010 eV
 added-field ion interaction         -0.109227 eV  (added to PSCEN)


 Broyden mixing:
  rms(total) = 0.14619E+01    rms(broyden)= 0.14603E+01
  rms(prec ) = 0.15122E+01
  weight for this iteration     100.00

 eigenvalues of (default mixing * dielectric matrix)
  average eigenvalue GAMMA=   0.7511
  1.5022  0.9043  0.5570  0.5570  0.2349

 Free energy of the ion-electron system (eV)
  ---------------------------------------------------
  alpha Z        PSCENC =      1026.10294663
  Ewald energy   TEWEN  =    592145.81907732
  -Hartree energ DENC   =   -676695.43310863
  -exchange      EXHF   =         0.00000000
  -V(xc)+E(xc)   XCENC  =      2998.91923023
  PAW double counting   =     85576.13915848   -92489.17494985
  entropy T*S    EENTRO =         0.00634282
  eigenvalues    EBANDS =     -2916.32038925
  atomic energy  EATOM  =     90187.72626527
  Solvation  Ediel_sol  =         0.00000000
  ---------------------------------------------------
  free energy    TOTEN  =      -166.21542698 eV

  energy without entropy =     -166.22176980  energy(sigma->0) =     -166.21754126


--------------------------------------------------------------------------------------------------------




--------------------------------------- Iteration      1(  11)  ---------------------------------------


    POTLOK:  cpu time    0.9030: real time    0.9380
    SETDIJ:  cpu time    0.2293: real time    0.2039
    EDDIAG:  cpu time   49.8417: real time   25.1483
  RMM-DIIS:  cpu time  202.4324: real time  114.5146
    ORTHCH:  cpu time    7.2889: real time    3.6735
       DOS:  cpu time    0.1498: real time    0.0815
    CHARGE:  cpu time    7.7476: real time    7.8409
    MIXING:  cpu time    0.0641: real time    0.0537
    --------------------------------------------
      LOOP:  cpu time  268.6567: real time  152.4545

 eigenvalue-minimisations  : 15176
 total energy-change (2. order) : 0.1488413E+01  (-0.2506775E+00)
 number of electron     724.0000777 magnetization      41.9285241
 augmentation part      451.4601976 magnetization      23.4852286

 DIPCOR: dipole corrections for dipol
 direction  3 min pos     1,
 dipolmoment           0.000000      0.000000      0.057864 electrons x Angstroem
 Tr[quadrupol]    -12850.904268

 energy correction for charged system         0.000000 eV
 dipol+quadrupol energy correction           -0.000099 eV
 added-field ion interaction         -0.340844 eV  (added to PSCEN)


 Broyden mixing:
  rms(total) = 0.10829E+01    rms(broyden)= 0.10819E+01
  rms(prec ) = 0.10888E+01
  weight for this iteration     100.00

 eigenvalues of (default mixing * dielectric matrix)
  average eigenvalue GAMMA=   0.9804
  2.7948  1.1289  0.7216  0.5773  0.2358  0.4244

 Free energy of the ion-electron system (eV)
  ---------------------------------------------------
  alpha Z        PSCENC =      1025.87124065
  Ewald energy   TEWEN  =    592145.81907732
  -Hartree energ DENC   =   -676768.67954865
  -exchange      EXHF   =         0.00000000
  -V(xc)+E(xc)   XCENC  =      2998.64280783
  PAW double counting   =     85788.20032029   -92711.03922891
  entropy T*S    EENTRO =         0.00472572
  eigenvalues    EBANDS =     -2831.27267392
  atomic energy  EATOM  =     90187.72626527
  Solvation  Ediel_sol  =         0.00000000
  ---------------------------------------------------
  free energy    TOTEN  =      -164.72701440 eV

  energy without entropy =     -164.73174013  energy(sigma->0) =     -164.72858965


--------------------------------------------------------------------------------------------------------




--------------------------------------- Iteration      1(  12)  ---------------------------------------


    POTLOK:  cpu time    0.8567: real time    0.9050
    SETDIJ:  cpu time    0.1634: real time    0.1659
    EDDIAG:  cpu time   49.8872: real time   25.1964
  RMM-DIIS:  cpu time  202.9294: real time  101.9019
    ORTHCH:  cpu time    7.2767: real time    3.6567
       DOS:  cpu time    0.2347: real time    0.1654
    CHARGE:  cpu time    7.7028: real time    7.7739
    MIXING:  cpu time    0.0208: real time    0.0393
    --------------------------------------------
      LOOP:  cpu time  269.0716: real time  139.8047

 eigenvalue-minimisations  : 15198
 total energy-change (2. order) :-0.4980319E+00  (-0.3780215E+00)
 number of electron     724.0000777 magnetization      35.8101895
 augmentation part      451.4253963 magnetization      18.7471348

 DIPCOR: dipole corrections for dipol
 direction  3 min pos     1,
 dipolmoment           0.000000      0.000000      0.135191 electrons x Angstroem
 Tr[quadrupol]    -12854.312573

 energy correction for charged system         0.000000 eV
 dipol+quadrupol energy correction           -0.000541 eV
 added-field ion interaction         -0.796331 eV  (added to PSCEN)


 Broyden mixing:
  rms(total) = 0.87930E+00    rms(broyden)= 0.87912E+00
  rms(prec ) = 0.90126E+00
  weight for this iteration     100.00

 eigenvalues of (default mixing * dielectric matrix)
  average eigenvalue GAMMA=   1.0974
  3.8711  1.2223  0.6915  0.6915  0.5593  0.2345  0.4118

 Free energy of the ion-electron system (eV)
  ---------------------------------------------------
  alpha Z        PSCENC =      1025.41531125
  Ewald energy   TEWEN  =    592145.81907732
  -Hartree energ DENC   =   -676941.03882355
  -exchange      EXHF   =         0.00000000
  -V(xc)+E(xc)   XCENC  =      2997.36385177
  PAW double counting   =     86544.94713037   -93500.98292467
  entropy T*S    EENTRO =         0.01630372
  eigenvalues    EBANDS =     -2624.49123777
  atomic energy  EATOM  =     90187.72626527
  Solvation  Ediel_sol  =         0.00000000
  ---------------------------------------------------
  free energy    TOTEN  =      -165.22504629 eV

  energy without entropy =     -165.24135001  energy(sigma->0) =     -165.23048087


--------------------------------------------------------------------------------------------------------




--------------------------------------- Iteration      1(  13)  ---------------------------------------


    POTLOK:  cpu time    0.8647: real time    0.9567
    SETDIJ:  cpu time    0.2352: real time    0.2987
    EDDIAG:  cpu time   50.1992: real time   25.4954
  RMM-DIIS:  cpu time  201.7835: real time  101.3349
    ORTHCH:  cpu time    7.3053: real time    3.6902
       DOS:  cpu time    0.1475: real time    0.0788
    CHARGE:  cpu time    7.8741: real time    7.9394
    MIXING:  cpu time    0.0613: real time    0.0379
    --------------------------------------------
      LOOP:  cpu time  268.4709: real time  139.8319

 eigenvalue-minimisations  : 15100
 total energy-change (2. order) :-0.5795282E+01  (-0.2374248E+00)
 number of electron     724.0000775 magnetization      30.3552570
 augmentation part      451.2916755 magnetization      15.0653879

 DIPCOR: dipole corrections for dipol
 direction  3 min pos     1,
 dipolmoment           0.000000      0.000000      0.217429 electrons x Angstroem
 Tr[quadrupol]    -12856.075971

 energy correction for charged system         0.000000 eV
 dipol+quadrupol energy correction           -0.001400 eV
 added-field ion interaction         -1.280744 eV  (added to PSCEN)


 Broyden mixing:
  rms(total) = 0.68637E+00    rms(broyden)= 0.68621E+00
  rms(prec ) = 0.70651E+00
  weight for this iteration     100.00

 eigenvalues of (default mixing * dielectric matrix)
  average eigenvalue GAMMA=   1.1981
  4.8091  1.4455  0.7943  0.7943  0.5740  0.5740  0.2345  0.3590

 Free energy of the ion-electron system (eV)
  ---------------------------------------------------
  alpha Z        PSCENC =      1024.93003938
  Ewald energy   TEWEN  =    592145.81907732
  -Hartree energ DENC   =   -677030.68169102
  -exchange      EXHF   =         0.00000000
  -V(xc)+E(xc)   XCENC  =      2993.56433127
  PAW double counting   =     86617.70007620   -93575.68094603
  entropy T*S    EENTRO =         0.03392656
  eigenvalues    EBANDS =     -2534.43140734
  atomic energy  EATOM  =     90187.72626527
  Solvation  Ediel_sol  =         0.00000000
  ---------------------------------------------------
  free energy    TOTEN  =      -171.02032840 eV

  energy without entropy =     -171.05425496  energy(sigma->0) =     -171.03163726


--------------------------------------------------------------------------------------------------------




--------------------------------------- Iteration      1(  14)  ---------------------------------------


    POTLOK:  cpu time    0.9121: real time    0.9468
    SETDIJ:  cpu time    0.1543: real time    0.1241
    EDDIAG:  cpu time   50.1255: real time   25.4059
  RMM-DIIS:  cpu time  201.8209: real time  101.2740
    ORTHCH:  cpu time    7.2997: real time    3.6694
       DOS:  cpu time    0.1718: real time    0.1006
    CHARGE:  cpu time    7.9682: real time    8.0699
    MIXING:  cpu time    0.0517: real time    0.0393
    --------------------------------------------
      LOOP:  cpu time  268.5041: real time  139.6299

 eigenvalue-minimisations  : 15108
 total energy-change (2. order) :-0.1410125E+02  (-0.5536331E+00)
[...]
   -.100E+03 -.117E+03 -.371E+04   0.100E+03 0.116E+03 0.371E+04   0.349E+00 0.978E+00 0.177E+01   -.146E-01 -.681E-02 0.415E-01
   -.309E+02 -.390E+02 -.377E+04   0.311E+02 0.389E+02 0.376E+04   -.111E+00 0.968E-01 0.362E+01   -.722E-02 -.140E-01 0.322E-01
   -.213E+02 -.982E+01 -.399E+03   0.214E+02 0.101E+02 0.399E+03   -.261E-01 -.299E+00 0.302E-01   -.374E-02 0.520E-03 0.130E-02
   -.214E+02 0.940E+02 -.411E+03   0.224E+02 -.102E+03 0.412E+03   -.968E+00 0.805E+01 -.524E+00   -.316E-02 0.461E-03 -.105E-02
   0.348E+02 -.891E+01 -.418E+03   -.404E+02 0.101E+02 0.418E+03   0.570E+01 -.119E+01 0.103E+00   -.664E-02 0.187E-02 -.321E-02
   0.630E+02 -.491E+01 -.191E+04   -.660E+02 0.472E+01 0.189E+04   0.310E+01 0.191E+00 0.201E+02   -.155E-03 0.108E-02 0.265E-01
   0.852E+02 -.218E+02 -.268E+04   -.880E+02 0.236E+02 0.272E+04   0.282E+01 -.178E+01 -.452E+02   -.877E-02 0.567E-02 -.227E-01
   -.131E+03 -.197E+02 -.247E+04   0.154E+03 0.507E+02 0.248E+04   -.237E+02 -.310E+02 -.854E+01   -.409E-01 0.288E-01 -.189E-01
 -----------------------------------------------------------------------------------------------
   0.110E+02 0.260E+02 0.375E+02   -.512E-12 0.213E-13 -.223E-10   -.109E+02 -.260E+02 -.395E+02   -.324E-01 0.495E-01 0.205E+01
 
 
 POSITION                                       TOTAL-FORCE (eV/Angst)
 -----------------------------------------------------------------------------------
      1.26164      1.26137     12.31169        -0.032772     -0.025620     -0.029024
      1.26160      3.78430     12.31142        -0.033562     -0.000761     -0.006592
      1.26157      6.30731     12.31157        -0.036145      0.022000     -0.020747
      1.26163      8.82997     12.31183        -0.027104     -0.006591      0.043519
      3.78443      1.26151     12.31236        -0.004906     -0.008383     -0.012895
      3.78443      3.78431     12.31218         0.001820      0.001236      0.009769
      3.78438      6.30723     12.31217        -0.009700      0.004783     -0.007368
      3.78436      8.83002     12.31232        -0.006009     -0.004695      0.016371
      6.30678      1.26153     12.31236         0.011513     -0.014738     -0.033560
      6.30675      3.78431     12.31231        -0.008245     -0.004218     -0.013669
      6.30677      6.30717     12.31222         0.006035      0.004127     -0.032648
      6.30679      8.82998     12.31227         0.000280     -0.005102      0.043155
      8.82956      1.26140     12.31172        -0.005324     -0.006351      0.030954
      8.82949      3.78429     12.31156        -0.007099     -0.005480      0.015316
      8.82953      6.30724     12.31167        -0.007980     -0.004244      0.029131
      8.82960      8.82994     12.31180         0.003938     -0.007024      0.034834
     10.08986     10.09020     14.09691        -0.000031     -0.000606     -0.001600
     10.08903      2.52009     14.09435        -0.000347     -0.000977     -0.002792
     10.08553      5.04511     14.09509        -0.001334     -0.000299     -0.002004
     10.08507      7.56268     14.10034        -0.001579     -0.002083      0.000035
      2.51871      0.00004     14.09567        -0.000937     -0.000726     -0.002240
      2.50663      2.51453     14.08008        -0.003913     -0.002432     -0.003607
      2.50433      5.05331     14.08022        -0.004708      0.002621     -0.003769
      2.51670      7.56785     14.09534        -0.000753      0.000416     -0.002302
      5.04191     10.08967     14.09411        -0.000472     -0.001262     -0.002727
      5.04526      2.51088     14.07638         0.000611     -0.003923     -0.006634
      5.04442      5.05668     14.07709         0.000379      0.003108     -0.006664
      5.04195      7.56516     14.09674        -0.000470     -0.000484     -0.001616
      7.56587     10.08661     14.09477        -0.000235     -0.002040     -0.002687
      7.56591      2.51930     14.09432         0.000948     -0.000881     -0.002234
      7.56355      5.04423     14.09447         0.000197     -0.000331     -0.002147
      7.56355      7.56332     14.09646        -0.000398     -0.001419     -0.001713
      1.26445      1.27468     15.93336         0.000400     -0.002519      0.000078
      1.26121      3.78200     15.92107         0.003962      0.001078      0.002239
      1.25308      6.28913     15.93430         0.007302      0.003191      0.000572
      1.25526      8.82815     15.91048         0.002674      0.000860      0.002351
      3.77214      1.27767     15.91447         0.004969     -0.005031      0.001185
      3.76589      3.78458     15.80103         0.006753      0.000147     -0.001901
      3.76310      6.29033     15.91515         0.010703      0.005719      0.002897
      3.77873      8.83010     15.90511         0.002336     -0.000099      0.001764
      6.29484      1.26370     15.91619         0.004953      0.000887      0.002480
      6.27690      3.78062     15.88415         0.007361      0.003964     -0.001239
      6.28887      6.28504     15.93199         0.009156      0.004149      0.002274
      6.30198      8.82201     15.91144         0.003250      0.002653      0.002321
      8.82030      1.25884     15.91256         0.002819      0.002462      0.002969
      8.81790      3.77746     15.89963         0.006755      0.003692      0.002202
      8.80306      6.28571     15.92592         0.009847      0.006740      0.003581
      8.82195      8.81996     15.92015         0.002928      0.003900      0.001568
     10.08536     10.08947     17.69028        -0.002217     -0.001014     -0.004360
     10.07615      2.52069     17.69259        -0.006857     -0.001034     -0.003501
     10.05639      5.03814     17.69401        -0.002779     -0.002289     -0.000168
     10.08262      7.56301     17.69060        -0.002821     -0.002119     -0.004595
      2.52089     10.08801     17.68823        -0.000301     -0.001093     -0.005668
      2.50428      2.51607     17.76722        -0.004250     -0.000345     -0.008899
      2.48187      5.05002     17.76726         0.002758      0.000663     -0.005542
      2.51625      7.57046     17.68605        -0.002014      0.001060     -0.005869
      5.04252      0.00196     17.68606        -0.001093      0.000189     -0.007008
      5.02870      2.52173     17.69131        -0.008259     -0.001409     -0.005912
      5.00953      5.05336     17.70529        -0.002015      0.001708      0.001610
      5.03651      7.57129     17.68505        -0.002526      0.001260     -0.006574
      7.56036     10.08858     17.69115        -0.002834     -0.000661     -0.005022
      7.55329      2.52673     17.69948        -0.008415      0.003846      0.000713
      7.52106      4.97692     17.74627         0.005123      0.003090      0.006061
      7.55689      7.54046     17.69360        -0.003233     -0.009617     -0.000786
      6.86320      3.58942     19.06917         0.029110      0.013736     -0.012388
      6.50999      2.40000     20.45200         0.027110      0.003547      0.006150
      5.38876      3.55262     20.34965         0.031896      0.006696      0.002048
      3.75286      3.79755     18.77316         0.010365     -0.000981      0.004384
      3.89003      3.80633     20.06105         0.011677     -0.008214     -0.004836
      6.41494      3.37436     20.39711         0.013707      0.033565      0.012975
 -----------------------------------------------------------------------------------
    total drift:                               -0.000581      0.000794      0.004116


--------------------------------------------------------------------------------------------------------



  FREE ENERGIE OF THE ION-ELECTRON SYSTEM (eV)
  ---------------------------------------------------
  free  energy   TOTEN  =      -272.96175841 eV

  energy  without entropy=     -272.99904051  energy(sigma->0) =     -272.97418578
 
 d Force = 0.1304719E-03[ 0.972E-04, 0.164E-03]  d Energy = 0.1482046E-03-0.177E-04
 d Force =-0.1240840E+01[-0.124E+01,-0.124E+01]  d Ewald  =-0.1240840E+01 0.309E-06


--------------------------------------------------------------------------------------------------------


    POTLOK:  cpu time    0.9584: real time    1.0644


--------------------------------------------------------------------------------------------------------


 NEB: the previous image is higher in energy: F
 NEB: the next image is higher in energy    : F
 NEB: image is at an extrema
 NEB: diff energy (min, max):     0.427555    1.023361

 NEB: Tangent
 ----------------------------------------------
     -0.00035     -0.00015      0.00197
     -0.00029     -0.00017      0.00222
     -0.00025     -0.00037      0.00220
     -0.00032     -0.00035      0.00197
     -0.00035     -0.00030      0.00123
     -0.00035     -0.00017      0.00141
     -0.00027     -0.00029      0.00161
     -0.00025     -0.00042      0.00146
      0.00013     -0.00033      0.00123
      0.00015     -0.00017      0.00124
      0.00013     -0.00022      0.00153
      0.00012     -0.00038      0.00153
      0.00015     -0.00019      0.00192
      0.00023     -0.00016      0.00204
      0.00019     -0.00028      0.00209
      0.00010     -0.00030      0.00201
      0.00341     -0.00392      0.00102
      0.00003      0.00071      0.00481
     -0.00024     -0.00291      0.00544
      0.00275     -0.00203      0.00481
      0.00056      0.00028      0.00305
     -0.00217     -0.00260      0.00151
     -0.00156     -0.00048      0.00217
      0.00122     -0.00404      0.00347
     -0.00275     -0.00518     -0.00002
      0.00044     -0.00058      0.00414
      0.00105     -0.00138      0.00444
     -0.00105     -0.00144      0.00337
      0.00017     -0.00403      0.00181
      0.00185     -0.00189      0.00027
      0.00213     -0.00037     -0.00024
      0.00014     -0.00360      0.00450
      0.00137      0.00132      0.01049
      0.00086     -0.00270      0.00927
      0.00467     -0.00922      0.01339
      0.00054     -0.00395      0.00194
     -0.00590     -0.00457     -0.00030
     -0.00605     -0.00139     -0.00331
     -0.00208     -0.00551      0.00692
      0.00138     -0.00436      0.00415
     -0.00356     -0.01324     -0.00979
      0.00824     -0.00087      0.00269
     -0.00145     -0.00445      0.00618
      0.00330     -0.00677      0.00558
      0.00849     -0.01229     -0.00776
     -0.00256     -0.00265      0.01399
      0.00372     -0.00375      0.00396
     -0.00052     -0.00569      0.01087
      0.00251     -0.00147      0.00575
     -0.01092     -0.00069      0.00917
     -0.01050     -0.00503      0.01156
      0.00389     -0.00321      0.00636
     -0.00060     -0.00654      0.00363
      0.00297     -0.00512      0.02058
      0.00629     -0.01100      0.02855
      0.00054     -0.00443      0.00542
      0.00114     -0.00080      0.00311
      0.00885     -0.00083     -0.02815
      0.00901     -0.00423      0.00429
      0.00066     -0.00245      0.00535
     -0.00152     -0.00582      0.00962
     -0.00425     -0.01600     -0.03078
     -0.01154     -0.03231      0.01017
      0.00000     -0.01482      0.01037
     -0.38907     -0.05288      0.59022
      0.27093      0.33481     -0.24273
     -0.20156      0.23140     -0.13663
      0.05227     -0.02548     -0.04384
      0.08484     -0.03920      0.01671
      0.09744      0.32769     -0.02404

 NEB: forces: par spring, perp REAL, dneb     1.565424    0.082780    0.000000
 NEB: distance to prev, next image, angle between     0.999848    1.312932  100.874679
 NEB: projections on to tangent (spring, REAL)     1.565424   -0.004398

 stress matrix after NEB project (eV)
    -26.63946     -0.11281      1.04112
     -0.11281    -26.86803      0.41175
      1.04112      0.41175     -5.82507
  FORCES: max atom, RMS     0.041273    0.009908
  FORCE total and by dimension    0.082897    0.036448
  Stress total and by dimension   38.314694   26.868031
 Quasi-Newton relaxation of ions (Broydens 2nd method)
  g(Force)  = 0.804E-03   g(Stress)= 0.000E+00

 retain information from N=  2 steps
 eigenvalues of (default step * inverse Hessian matrix)
  average eigenvalue of G=   2.6501
 eigenvalue spectrum of G is  0.3240  4.9763


--------------------------------------------------------------------------------------------------------


  
 reached required accuracy - stopping structural energy minimisation
     LOOP+:  cpu time 1199.3878: real time  807.7871
    4ORBIT:  cpu time    0.0000: real time    0.0004
 


 total charge     
 
# of ion       s       p       d       tot
------------------------------------------
    1        0.452   0.277   9.208   9.938
    2        0.453   0.277   9.208   9.939
    3        0.452   0.277   9.209   9.938
    4        0.451   0.276   9.208   9.935
    5        0.454   0.278   9.207   9.939
    6        0.450   0.279   9.206   9.935
    7        0.454   0.278   9.207   9.939
    8        0.449   0.276   9.209   9.935
    9        0.452   0.278   9.207   9.937
   10        0.453   0.279   9.206   9.937
   11        0.453   0.278   9.207   9.938
   12        0.451   0.277   9.208   9.935
   13        0.451   0.277   9.207   9.935
   14        0.449   0.278   9.207   9.934
   15        0.452   0.276   9.208   9.936
   16        0.452   0.275   9.208   9.935
   17        0.452   0.396   9.177  10.025
   18        0.453   0.399   9.178  10.030
   19        0.453   0.399   9.178  10.029
   20        0.451   0.395   9.177  10.024
   21        0.452   0.399   9.177  10.028
   22        0.458   0.403   9.179  10.039
   23        0.457   0.403   9.179  10.039
   24        0.452   0.399   9.176  10.027
   25        0.452   0.399   9.177  10.029
   26        0.458   0.403   9.179  10.041
   27        0.458   0.403   9.179  10.040
   28        0.452   0.399   9.177  10.028
   29        0.453   0.397   9.177  10.028
   30        0.453   0.402   9.176  10.031
   31        0.454   0.402   9.176  10.032
   32        0.453   0.396   9.178  10.027
   33        0.452   0.402   9.173  10.026
   34        0.449   0.398   9.176  10.023
   35        0.452   0.401   9.172  10.026
   36        0.454   0.398   9.178  10.029
   37        0.449   0.401   9.176  10.027
   38        0.461   0.379   9.199  10.040
   39        0.448   0.401   9.176  10.025
   40        0.454   0.400   9.176  10.029
   41        0.454   0.405   9.171  10.030
   42        0.452   0.396   9.184  10.032
   43        0.453   0.403   9.170  10.027
   44        0.456   0.395   9.179  10.030
   45        0.456   0.400   9.174  10.030
   46        0.455   0.397   9.179  10.030
   47        0.454   0.397   9.175  10.026
   48        0.449   0.401   9.176  10.026
   49        0.450   0.278   9.208   9.936
   50        0.451   0.279   9.209   9.939
   51        0.452   0.277   9.210   9.939
   52        0.450   0.277   9.209   9.936
   53        0.452   0.279   9.209   9.940
   54        0.439   0.332   9.179   9.950
   55        0.439   0.335   9.179   9.952
   56        0.452   0.280   9.209   9.941
   57        0.453   0.281   9.207   9.940
   58        0.442   0.340   9.183   9.966
   59        0.444   0.341   9.182   9.968
   60        0.453   0.280   9.208   9.940
   61        0.451   0.278   9.206   9.935
   62        0.463   0.336   9.177   9.977
   63        0.448   0.304   9.186   9.938
   64        0.449   0.274   9.208   9.931
   65        0.401   0.028   0.000   0.430
   66        0.610   0.110   0.000   0.720
   67        0.530   0.100   0.000   0.630
   68        1.268   2.349   0.000   3.616
   69        1.613   3.432   0.000   5.045
   70        1.599   3.585   0.000   5.184
--------------------------------------------------
tot         34.944  31.583 588.166 654.692
 


 magnetization (x)
 
# of ion       s       p       d       tot
------------------------------------------
    1        0.000   0.000  -0.000  -0.000
    2        0.000   0.000  -0.000  -0.000
    3        0.000   0.000  -0.000  -0.000
    4        0.000   0.000  -0.000  -0.000
    5        0.000   0.000  -0.000  -0.000
    6        0.000   0.000  -0.000  -0.000
    7        0.000   0.000  -0.000  -0.000
    8        0.000   0.000  -0.000  -0.000
    9        0.000   0.000  -0.000  -0.000
   10        0.000   0.000  -0.000  -0.000
   11        0.000   0.000  -0.000  -0.000
   12        0.000   0.000  -0.000  -0.000
   13        0.000   0.000  -0.000  -0.000
   14        0.000   0.000  -0.000  -0.000
   15        0.000   0.000  -0.000  -0.000
   16        0.000   0.000  -0.000   0.000
   17        0.000   0.000  -0.000   0.000
   18        0.000   0.000  -0.000   0.000
   19        0.000   0.000  -0.000   0.000
   20        0.000   0.000  -0.000   0.000
   21        0.000   0.000  -0.000   0.000
   22        0.000   0.000  -0.000   0.000
   23        0.000   0.000  -0.000  -0.000
   24        0.000   0.000  -0.000   0.000
   25        0.000   0.000  -0.000   0.000
   26        0.000   0.000  -0.000  -0.000
   27        0.000   0.000  -0.000   0.000
   28        0.000   0.000  -0.000   0.000
   29        0.000   0.000  -0.000   0.000
   30        0.000   0.000  -0.000   0.000
   31        0.000   0.000  -0.000  -0.000
   32        0.000   0.000  -0.000   0.000
   33       -0.000  -0.000   0.000   0.000
   34       -0.000  -0.000  -0.000  -0.000
   35       -0.000  -0.000   0.000   0.000
   36       -0.000   0.000  -0.000  -0.000
   37       -0.000  -0.000   0.000  -0.000
   38        0.000  -0.000   0.000   0.000
   39       -0.000  -0.000  -0.000  -0.000
   40       -0.000  -0.000   0.000   0.000
   41       -0.000  -0.000   0.000   0.000
   42       -0.000  -0.000   0.000  -0.000
   43       -0.000  -0.000   0.000   0.000
   44       -0.000   0.000  -0.000  -0.000
   45       -0.000  -0.000   0.000  -0.000
   46       -0.000  -0.000   0.000   0.000
   47       -0.000  -0.000   0.000  -0.000
   48       -0.000  -0.000   0.000   0.000
   49       -0.000  -0.000   0.000   0.000
   50       -0.000  -0.000   0.000   0.000
   51       -0.000  -0.000   0.000   0.000
   52       -0.000  -0.000   0.000   0.000
   53       -0.000  -0.000   0.000   0.000
   54       -0.000  -0.000   0.000  -0.000
   55       -0.000  -0.000   0.000  -0.000
   56       -0.000  -0.000   0.000   0.000
   57       -0.000  -0.000   0.000   0.000
   58       -0.000  -0.000   0.000  -0.000
   59       -0.000  -0.000   0.000  -0.000
   60       -0.000  -0.000   0.000   0.000
   61       -0.000  -0.000   0.000   0.000
   62        0.000  -0.000   0.000   0.000
   63       -0.000  -0.000   0.000  -0.000
   64       -0.000  -0.000   0.000   0.000
   65        0.000   0.000   0.000   0.000
   66        0.000  -0.000   0.000   0.000
   67        0.000  -0.000   0.000   0.000
   68       -0.000  -0.000   0.000  -0.000
   69        0.000  -0.000   0.000  -0.000
   70        0.000   0.000   0.000   0.000
--------------------------------------------------
tot          0.000  -0.000  -0.000  -0.000
 

 total amount of memory used by VASP MPI-rank0   706470. kBytes
=======================================================================

   base      :      30000. kBytes
   nonlr-proj:      12417. kBytes
   fftplans  :      24435. kBytes
   grid      :      70089. kBytes
   one-center:        186. kBytes
   wavefun   :     569343. kBytes
 
  
  
 General timing and accounting informations for this job:
 ========================================================
  
                  Total CPU time used (sec):    13345.585
                            User time (sec):    12983.894
                          System time (sec):      361.691
                         Elapsed time (sec):     7491.106
  
                   Maximum memory used (kb):     1203400.
                   Average memory used (kb):           0.
  
                          Minor page faults:      1022765
                          Major page faults:          943
                 Voluntary context switches:       554501
