 vasp.5.4.4.18Apr17-6-g9f103f2a35 (build May 01 2020 14:57:12) complex          
  
 executed on             LinuxIFC date 2021.10.23  23:08:20
 running on   96 total cores
 distrk:  each k-point on   96 cores,    1 groups
 distr:  one band on NCORES_PER_BAND=   1 cores,   96 groups


--------------------------------------------------------------------------------------------------------


 INCAR:
 POTCAR:    PAW_PBE Pd 04Jan2005                  
 POTCAR:    PAW_PBE N 08Apr2002                   
 POTCAR:    PAW_PBE O 08Apr2002                   
 POTCAR:    PAW_PBE H 15Jun2001                   

 ----------------------------------------------------------------------------- 
|                                                                             |
|           W    W    AA    RRRRR   N    N  II  N    N   GGGG   !!!           |
|           W    W   A  A   R    R  NN   N  II  NN   N  G    G  !!!           |
|           W    W  A    A  R    R  N N  N  II  N N  N  G       !!!           |
|           W WW W  AAAAAA  RRRRR   N  N N  II  N  N N  G  GGG   !            |
|           WW  WW  A    A  R   R   N   NN  II  N   NN  G    G                |
|           W    W  A    A  R    R  N    N  II  N    N   GGGG   !!!           |
|                                                                             |
|      For optimal performance we recommend to set                            |
|        NCORE= 4 - approx SQRT( number of cores)                             |
|      NCORE specifies how many cores store one orbital (NPAR=cpu/NCORE).     |
|      This setting can  greatly improve the performance of VASP for DFT.     |
|      The default,   NCORE=1            might be grossly inefficient         |
|      on modern multi-core architectures or massively parallel machines.     |
|      Do your own testing !!!!                                               |
|      Unfortunately you need to use the default for GW and RPA calculations. |
|      (for HF NCORE is supported but not extensively tested yet)             |
|                                                                             |
 ----------------------------------------------------------------------------- 

 POTCAR:    PAW_PBE Pd 04Jan2005                  
   VRHFIN =Pd : s1 d9                                                           
   LEXCH  = PE                                                                  
   EATOM  =   809.7530 eV,   59.5152 Ry                                         
                                                                                
   TITEL  = PAW_PBE Pd 04Jan2005                                                
   LULTRA =        F    use ultrasoft PP ?                                      
   IUNSCR =        1    unscreen: 0-lin 1-nonlin 2-no                           
   RPACOR =    2.000    partial core radius                                     
   POMASS =  106.420; ZVAL   =   10.000    mass and valenz                      
   RCORE  =    2.600    outmost cutoff radius                                   
   RWIGS  =    2.710; RWIGS  =    1.434    wigner-seitz radius (au A)           
   ENMAX  =  250.925; ENMIN  =  188.194 eV                                      
   ICORE  =        3    local potential                                         
   LCOR   =        T    correct aug charges                                     
   LPAW   =        T    paw PP                                                  
   EAUG   =  416.230                                                            
   DEXC   =    0.000                                                            
   RMAX   =    2.653    core radius for proj-oper                               
   RAUG   =    1.300    factor for augmentation sphere                          
   RDEP   =    2.734    radius for radial grids                                 
   RDEPT  =    2.103    core radius for aug-charge                              
                                                                                
   Atomic configuration                                                         
   12 entries                                                                   
     n  l   j            E        occ.                                          
     1  0  0.50    -24164.6631   2.0000                                         
     2  0  0.50     -3530.9218   2.0000                                         
     2  1  1.50     -3165.6822   6.0000                                         
     3  0  0.50      -639.4577   2.0000                                         
     3  1  1.50      -519.4532   6.0000                                         
     3  2  2.50      -328.9757  10.0000                                         
     4  0  0.50       -88.7014   2.0000                                         
     4  1  1.50       -54.4540   6.0000                                         
     4  2  2.50        -6.6878   9.0000                                         
     5  0  0.50        -4.3543   1.0000                                         
     5  1  0.50        -1.3606   0.0000                                         
     4  3  2.50        -1.3606   0.0000                                         
   Description                                                                  
     l       E           TYP  RCUT    TYP  RCUT                                 
     2     -6.6878251     23  2.400                                             
     2     -8.0484077     23  2.400                                             
     0     -4.3542939     23  2.400                                             
     0      4.3406793     23  2.400                                             
     1     -4.0817478     23  2.600                                             
     1     15.8380318     23  2.600                                             
     3     -4.0817478     23  2.400                                             
  local pseudopotential read in
  partial core-charges read in
  partial kinetic energy density read in
  atomic valenz-charges read in
  non local Contribution for L=           2  read in
    real space projection operators read in
  non local Contribution for L=           2  read in
    real space projection operators read in
  non local Contribution for L=           0  read in
    real space projection operators read in
  non local Contribution for L=           0  read in
    real space projection operators read in
  non local Contribution for L=           1  read in
    real space projection operators read in
  non local Contribution for L=           1  read in
    real space projection operators read in
    PAW grid and wavefunctions read in
 
   number of l-projection  operators is LMAX  =           6
   number of lm-projection operators is LMMAX =          18
 
 POTCAR:    PAW_PBE N 08Apr2002                   
   VRHFIN =N: s2p3                                                              
   LEXCH  = PE                                                                  
   EATOM  =   264.5486 eV,   19.4438 Ry                                         
                                                                                
   TITEL  = PAW_PBE N 08Apr2002                                                 
   LULTRA =        F    use ultrasoft PP ?                                      
   IUNSCR =        1    unscreen: 0-lin 1-nonlin 2-no                           
   RPACOR =    1.200    partial core radius                                     
   POMASS =   14.001; ZVAL   =    5.000    mass and valenz                      
   RCORE  =    1.500    outmost cutoff radius                                   
   RWIGS  =    1.400; RWIGS  =    0.741    wigner-seitz radius (au A)           
   ENMAX  =  400.000; ENMIN  =  300.000 eV                                      
   ICORE  =        2    local potential                                         
   LCOR   =        T    correct aug charges                                     
   LPAW   =        T    paw PP                                                  
   EAUG   =  627.112                                                            
   DEXC   =    0.000                                                            
   RMAX   =    1.529    core radius for proj-oper                               
   RAUG   =    1.300    factor for augmentation sphere                          
   RDEP   =    1.514    radius for radial grids                                 
   RDEPT  =    1.338    core radius for aug-charge                              
                                                                                
   Atomic configuration                                                         
    4 entries                                                                   
     n  l   j            E        occ.                                          
     1  0  0.50      -384.7179   2.0000                                         
     2  0  0.50       -18.5828   2.0000                                         
     2  1  0.50        -7.0898   3.0000                                         
     3  2  1.50        -6.8029   0.0000                                         
   Description                                                                  
     l       E           TYP  RCUT    TYP  RCUT                                 
     0    -18.5828119     23  1.200                                             
     0    -13.5018863     23  1.200                                             
     1     -7.0897853     23  1.500                                             
     1      9.5240782     23  1.500                                             
     2     -6.8029130      7  1.500                                             
  local pseudopotential read in
  partial core-charges read in
  partial kinetic energy density read in
  atomic valenz-charges read in
  non local Contribution for L=           0  read in
    real space projection operators read in
  non local Contribution for L=           0  read in
    real space projection operators read in
  non local Contribution for L=           1  read in
    real space projection operators read in
  non local Contribution for L=           1  read in
    real space projection operators read in
    PAW grid and wavefunctions read in
 
   number of l-projection  operators is LMAX  =           4
   number of lm-projection operators is LMMAX =           8
 
 POTCAR:    PAW_PBE O 08Apr2002                   
   VRHFIN =O: s2p4                                                              
   LEXCH  = PE                                                                  
   EATOM  =   432.3788 eV,   31.7789 Ry                                         
                                                                                
   TITEL  = PAW_PBE O 08Apr2002                                                 
   LULTRA =        F    use ultrasoft PP ?                                      
   IUNSCR =        1    unscreen: 0-lin 1-nonlin 2-no                           
   RPACOR =    1.200    partial core radius                                     
   POMASS =   16.000; ZVAL   =    6.000    mass and valenz                      
   RCORE  =    1.520    outmost cutoff radius                                   
   RWIGS  =    1.550; RWIGS  =    0.820    wigner-seitz radius (au A)           
   ENMAX  =  400.000; ENMIN  =  300.000 eV                                      
   ICORE  =        2    local potential                                         
   LCOR   =        T    correct aug charges                                     
   LPAW   =        T    paw PP                                                  
   EAUG   =  605.392                                                            
   DEXC   =    0.000                                                            
   RMAX   =    1.553    core radius for proj-oper                               
   RAUG   =    1.300    factor for augmentation sphere                          
   RDEP   =    1.550    radius for radial grids                                 
   RDEPT  =    1.329    core radius for aug-charge                              
                                                                                
   Atomic configuration                                                         
    4 entries                                                                   
     n  l   j            E        occ.                                          
     1  0  0.50      -514.6923   2.0000                                         
     2  0  0.50       -23.9615   2.0000                                         
     2  1  0.50        -9.0305   4.0000                                         
     3  2  1.50        -9.5241   0.0000                                         
   Description                                                                  
     l       E           TYP  RCUT    TYP  RCUT                                 
     0    -23.9615318     23  1.200                                             
     0     -9.5240782     23  1.200                                             
     1     -9.0304911     23  1.520                                             
     1      8.1634956     23  1.520                                             
     2     -9.5240782      7  1.500                                             
  local pseudopotential read in
  partial core-charges read in
  partial kinetic energy density read in
  kinetic energy density of atom read in
  atomic valenz-charges read in
  non local Contribution for L=           0  read in
    real space projection operators read in
  non local Contribution for L=           0  read in
    real space projection operators read in
  non local Contribution for L=           1  read in
    real space projection operators read in
  non local Contribution for L=           1  read in
    real space projection operators read in
    PAW grid and wavefunctions read in
 
   number of l-projection  operators is LMAX  =           4
   number of lm-projection operators is LMMAX =           8
 
 POTCAR:    PAW_PBE H 15Jun2001                   
   VRHFIN =H: ultrasoft test                                                    
   LEXCH  = PE                                                                  
   EATOM  =    12.4884 eV,    0.9179 Ry                                         
                                                                                
   TITEL  = PAW_PBE H 15Jun2001                                                 
   LULTRA =        F    use ultrasoft PP ?                                      
   IUNSCR =        0    unscreen: 0-lin 1-nonlin 2-no                           
   RPACOR =    0.000    partial core radius                                     
   POMASS =    1.000; ZVAL   =    1.000    mass and valenz                      
   RCORE  =    1.100    outmost cutoff radius                                   
   RWIGS  =    0.700; RWIGS  =    0.370    wigner-seitz radius (au A)           
   ENMAX  =  250.000; ENMIN  =  200.000 eV                                      
   RCLOC  =    0.701    cutoff for local pot                                    
   LCOR   =        T    correct aug charges                                     
   LPAW   =        T    paw PP                                                  
   EAUG   =  400.000                                                            
   RMAX   =    1.123    core radius for proj-oper                               
   RAUG   =    1.200    factor for augmentation sphere                          
   RDEP   =    1.112    radius for radial grids                                 
   RDEPT  =    0.926    core radius for aug-charge                              
                                                                                
   Atomic configuration                                                         
    2 entries                                                                   
     n  l   j            E        occ.                                          
     1  0  0.50        -6.4927   1.0000                                         
     2  1  0.50        -3.4015   0.0000                                         
   Description                                                                  
     l       E           TYP  RCUT    TYP  RCUT                                 
     0     -6.4927494     23  1.100                                             
     0      6.8029130     23  1.100                                             
     1     -4.0817478     23  1.100                                             
  local pseudopotential read in
  atomic valenz-charges read in
  non local Contribution for L=           0  read in
    real space projection operators read in
  non local Contribution for L=           0  read in
    real space projection operators read in
  non local Contribution for L=           1  read in
    real space projection operators read in
    PAW grid and wavefunctions read in
 
   number of l-projection  operators is LMAX  =           3
   number of lm-projection operators is LMMAX =           5
 
 Optimization of the real space projectors (new method)

 maximal supplied QI-value         = 14.36
 optimisation between [QCUT,QGAM] = [ 10.20, 20.39] = [ 29.12,116.47] Ry 
 Optimized for a Real-space Cutoff    1.55 Angstroem

   l    n(q)    QCUT    max X(q) W(low)/X(q) W(high)/X(q)  e(spline) 
   2      9    10.197    59.108    0.12E-03    0.40E-04    0.11E-06
   2      9    10.197    58.101    0.12E-03    0.39E-04    0.12E-06
   0      9    10.197   102.235    0.41E-04    0.86E-05    0.83E-07
   0      9    10.197    58.388    0.37E-04    0.79E-05    0.78E-07
   1      9    10.197    22.191    0.25E-03    0.13E-03    0.84E-07
   1      9    10.197    15.590    0.21E-03    0.11E-03    0.74E-07
 Optimization of the real space projectors (new method)

 maximal supplied QI-value         = 25.13
 optimisation between [QCUT,QGAM] = [ 10.05, 20.36] = [ 28.30,116.06] Ry 
 Optimized for a Real-space Cutoff    1.70 Angstroem

   l    n(q)    QCUT    max X(q) W(low)/X(q) W(high)/X(q)  e(spline) 
   0     10    10.053    79.467    0.61E-04    0.98E-04    0.61E-06
   0     10    10.053    66.151    0.60E-04    0.98E-04    0.61E-06
   1     10    10.053     8.350    0.17E-03    0.71E-03    0.45E-05
   1     10    10.053     5.531    0.18E-03    0.77E-03    0.49E-05
 Optimization of the real space projectors (new method)

 maximal supplied QI-value         = 24.76
 optimisation between [QCUT,QGAM] = [ 10.15, 20.30] = [ 28.85,115.39] Ry 
 Optimized for a Real-space Cutoff    1.51 Angstroem

   l    n(q)    QCUT    max X(q) W(low)/X(q) W(high)/X(q)  e(spline) 
   0      9    10.150    20.381    0.17E-03    0.18E-03    0.41E-06
   0      9    10.150    15.268    0.18E-03    0.20E-03    0.43E-06
   1      9    10.150     5.964    0.16E-03    0.20E-03    0.36E-06
   1      9    10.150     5.382    0.13E-03    0.16E-03    0.33E-06
 Optimization of the real space projectors (new method)

 maximal supplied QI-value         = 34.20
 optimisation between [QCUT,QGAM] = [  9.92, 20.18] = [ 27.55,114.04] Ry 
 Optimized for a Real-space Cutoff    1.34 Angstroem

   l    n(q)    QCUT    max X(q) W(low)/X(q) W(high)/X(q)  e(spline) 
   0      8     9.919    19.460    0.16E-03    0.20E-03    0.36E-06
   0      8     9.919    12.209    0.16E-03    0.20E-03    0.35E-06
   1      8     9.919     4.655    0.19E-03    0.46E-03    0.40E-06
  PAW_PBE Pd 04Jan2005                  :
 energy of atom  1       EATOM= -809.7530
 kinetic energy error for atom=    0.0091 (will be added to EATOM!!)
  PAW_PBE N 08Apr2002                   :
 energy of atom  2       EATOM= -264.5486
 kinetic energy error for atom=    0.0736 (will be added to EATOM!!)
  PAW_PBE O 08Apr2002                   :
 energy of atom  3       EATOM= -432.3788
 kinetic energy error for atom=    0.1156 (will be added to EATOM!!)
  PAW_PBE H 15Jun2001                   :
 energy of atom  4       EATOM=  -12.4884
 kinetic energy error for atom=    0.0098 (will be added to EATOM!!)
 
 
 POSCAR: Pd N O H                                
  positions in direct lattice
  velocities in cartesian coordinates
 exchange correlation table for  LEXCH =        8
   RHO(1)=    0.500       N(1)  =     2000
   RHO(2)=  100.500       N(2)  =     4000
 


--------------------------------------------------------------------------------------------------------


 ion  position               nearest neighbor table
   1  0.125  0.125  0.403-   2 2.75   5 2.75   4 2.75  13 2.75  22 2.75  21 2.75  18 2.75  17 2.76

   2  0.125  0.375  0.403-   1 2.75   3 2.75   6 2.75  14 2.75  23 2.75  22 2.75  18 2.76  19 2.76

   3  0.125  0.625  0.403-   2 2.75   4 2.75   7 2.75  15 2.75  23 2.75  24 2.75  19 2.75  20 2.76

   4  0.125  0.875  0.403-   3 2.75   8 2.75   1 2.75  16 2.75  24 2.75  21 2.75  20 2.75  17 2.76

   5  0.375  0.125  0.403-   1 2.75   6 2.75   9 2.75   8 2.75  26 2.75  22 2.75  25 2.76  21 2.76

   6  0.375  0.375  0.403-   2 2.75   5 2.75   7 2.75  10 2.75  27 2.75  26 2.76  23 2.76  22 2.76

   7  0.375  0.625  0.403-   3 2.75   6 2.75   8 2.75  11 2.75  27 2.75  23 2.75  28 2.76  24 2.76

   8  0.375  0.875  0.403-   4 2.75   7 2.75  12 2.75   5 2.75  25 2.76  28 2.76  21 2.76  24 2.76

   9  0.625  0.125  0.403-   5 2.75  10 2.75  13 2.75  12 2.75  26 2.75  25 2.75  30 2.75  29 2.76

  10  0.625  0.375  0.403-   6 2.75   9 2.75  11 2.75  14 2.75  27 2.75  26 2.75  31 2.76  30 2.76

  11  0.625  0.625  0.403-   7 2.75  10 2.75  12 2.75  15 2.75  27 2.75  28 2.75  31 2.75  32 2.76

  12  0.625  0.875  0.403-   8 2.75  11 2.75  16 2.75   9 2.75  25 2.75  28 2.75  29 2.76  32 2.76

  13  0.875  0.125  0.403-   9 2.75  14 2.75   1 2.75  16 2.75  30 2.75  18 2.75  17 2.76  29 2.76

  14  0.875  0.375  0.403-  10 2.75  13 2.75  15 2.75   2 2.75  31 2.76  30 2.76  19 2.76  18 2.76

  15  0.875  0.625  0.403-  11 2.75  14 2.75  16 2.75   3 2.75  31 2.75  19 2.75  20 2.76  32 2.76

  16  0.875  0.875  0.403-  12 2.75  15 2.75  13 2.75   4 2.75  20 2.75  29 2.76  17 2.76  32 2.76

  17  0.000  1.000  0.468-  21 2.74  18 2.74  20 2.75  29 2.75  36 2.75  48 2.75  45 2.75   4 2.76
                             1 2.76  16 2.76  13 2.76  33 2.78
  18  0.000  0.250  0.468-  22 2.74  17 2.74  30 2.74  34 2.75  45 2.75  46 2.75  19 2.75   1 2.75
                            13 2.75   2 2.76  14 2.76  33 2.77
  19  1.000  0.500  0.468-  23 2.74  20 2.74  31 2.74  34 2.75  47 2.75  46 2.75  18 2.75  15 2.75
                             3 2.75  14 2.76   2 2.76  35 2.76
  20  0.000  0.750  0.468-  24 2.74  19 2.74  17 2.75  32 2.75  48 2.75  36 2.75   4 2.75  16 2.75
                             3 2.76  47 2.76  15 2.76  35 2.79
  21  0.250  1.000  0.468-  17 2.74  22 2.74  37 2.74  24 2.75  36 2.75  40 2.75   4 2.75   1 2.75
                            25 2.75   8 2.76   5 2.76  33 2.77
  22  0.249  0.250  0.468-  38 2.71  18 2.74  21 2.74   1 2.75   2 2.75   5 2.75  33 2.75  23 2.75
                            37 2.75  26 2.75   6 2.76  34 2.76
  23  0.249  0.500  0.468-  38 2.71  19 2.74  24 2.74   3 2.75   2 2.75   7 2.75  35 2.75  39 2.75
                            22 2.75  27 2.75   6 2.76  34 2.76
  24  0.249  0.750  0.468-  20 2.74  39 2.74  23 2.74  21 2.75  36 2.75  40 2.75   3 2.75   4 2.75
                            28 2.75   7 2.76   8 2.76  35 2.77
  25  0.500  1.000  0.468-  26 2.74  29 2.74  37 2.74  28 2.75  40 2.75  44 2.75  12 2.75   9 2.75
                            21 2.75   8 2.76   5 2.76  41 2.76
  26  0.500  0.250  0.468-  38 2.72  25 2.74  30 2.74   9 2.75   5 2.75  10 2.75  41 2.75  42 2.75
                            22 2.75  27 2.75   6 2.76  37 2.76
  27  0.500  0.500  0.468-  38 2.72  28 2.74  31 2.74  11 2.75   7 2.75  10 2.75  43 2.75   6 2.75
                            26 2.75  23 2.75  42 2.76  39 2.76
  28  0.500  0.750  0.468-  27 2.74  32 2.74  39 2.74  25 2.75  44 2.75  40 2.75  11 2.75  12 2.75
                            24 2.75   7 2.76   8 2.76  43 2.77
  29  0.750  1.000  0.468-  30 2.74  25 2.74  32 2.75  17 2.75  48 2.75  44 2.75  45 2.75  16 2.76
                            12 2.76  13 2.76   9 2.76  41 2.78
  30  0.750  0.250  0.468-  29 2.74  42 2.74  26 2.74  18 2.74  45 2.75  46 2.75  13 2.75   9 2.75
                            31 2.75  14 2.76  10 2.76  41 2.76
  31  0.750  0.500  0.468-  32 2.74  42 2.74  27 2.74  19 2.74  47 2.75  46 2.75  11 2.75  15 2.75
                            30 2.75  10 2.76  14 2.76  43 2.77
  32  0.750  0.750  0.468-  31 2.74  28 2.74  29 2.75  20 2.75  48 2.75  44 2.75  47 2.75  11 2.76
                            15 2.76  12 2.76  16 2.76  43 2.78
  33  0.126  0.127  0.534-  34 2.73  37 2.73  53 2.75  50 2.75  22 2.75  49 2.75  45 2.76  36 2.76
                            18 2.77  21 2.77  54 2.77  17 2.78
  34  0.124  0.375  0.533-  33 2.73  35 2.73  46 2.74  18 2.75  19 2.75  38 2.75  22 2.76  23 2.76
                            50 2.76  51 2.76  55 2.80  54 2.81
  35  0.126  0.623  0.534-  34 2.73  39 2.73  56 2.74  51 2.75  23 2.75  52 2.75  47 2.76  36 2.76
                            19 2.76  24 2.77  55 2.77  20 2.79
  36  0.125  0.875  0.533-  48 2.75  40 2.75  21 2.75  24 2.75  17 2.75  20 2.75  49 2.75  52 2.75
                            56 2.76  53 2.76  33 2.76  35 2.76
  37  0.375  0.124  0.533-  33 2.73  41 2.73  40 2.73  21 2.74  25 2.74  22 2.75  26 2.76  38 2.76
                            53 2.76  57 2.77  58 2.78  54 2.81
  38  0.374  0.375  0.531-  22 2.71  23 2.71  26 2.72  27 2.72  34 2.75  39 2.76  37 2.76  42 2.76
                            59 2.82  58 2.82  54 2.83  55 2.84
  39  0.375  0.626  0.533-  35 2.73  43 2.74  40 2.74  24 2.74  28 2.74  23 2.75  27 2.76  38 2.76
                            56 2.76  60 2.76  59 2.79  55 2.81
  40  0.375  0.875  0.533-  37 2.73  39 2.74  44 2.74  36 2.75  21 2.75  25 2.75  28 2.75  24 2.75
                            60 2.76  53 2.76  56 2.76  57 2.76
  41  0.624  0.126  0.534-  42 2.73  37 2.73  62 2.75  57 2.75  26 2.75  58 2.75  61 2.76  44 2.76
                            45 2.76  25 2.76  30 2.76  29 2.78
  42  0.626  0.375  0.533-  43 2.73  41 2.73  46 2.74  30 2.74  31 2.74  26 2.75  27 2.76  63 2.76
                            62 2.76  38 2.76  58 2.79  59 2.79
  43  0.624  0.624  0.534-  42 2.73  39 2.74  60 2.75  63 2.75  27 2.75  59 2.75  64 2.75  44 2.76
                            47 2.76  28 2.77  31 2.77  32 2.78
  44  0.625  0.875  0.533-  48 2.74  40 2.74  28 2.75  32 2.75  25 2.75  29 2.75  64 2.76  61 2.76
                            57 2.76  60 2.76  41 2.76  43 2.76
  45  0.875  0.125  0.533-  46 2.75  48 2.75  18 2.75  30 2.75  17 2.75  49 2.75  29 2.75  61 2.76
                            62 2.76  50 2.76  33 2.76  41 2.76
  46  0.875  0.375  0.533-  42 2.74  34 2.74  47 2.74  45 2.75  19 2.75  18 2.75  30 2.75  31 2.75
                            51 2.76  62 2.76  50 2.76  63 2.77
  47  0.875  0.625  0.533-  46 2.74  48 2.75  19 2.75  31 2.75  32 2.75  64 2.75  52 2.75  20 2.76
                            51 2.76  35 2.76  43 2.76  63 2.77
  48  0.875  0.875  0.533-  44 2.74  47 2.75  36 2.75  45 2.75  32 2.75  29 2.75  20 2.75  17 2.75
                            52 2.75  49 2.75  61 2.76  64 2.76
  49  1.000  1.000  0.598-  52 2.74  61 2.74  50 2.75  53 2.75  45 2.75  36 2.75  33 2.75  48 2.75

  50  0.999  0.250  0.599-  62 2.74  51 2.74  33 2.75  49 2.75  45 2.76  46 2.76  34 2.76  54 2.76

  51  0.999  0.500  0.599-  63 2.74  50 2.74  52 2.75  35 2.75  47 2.76  46 2.76  34 2.76  55 2.77

  52  1.000  0.750  0.598-  64 2.74  49 2.74  56 2.75  51 2.75  48 2.75  47 2.75  35 2.75  36 2.75

  53  0.250  1.000  0.598-  56 2.74  57 2.75  33 2.75  49 2.75  54 2.76  36 2.76  37 2.76  40 2.76

  54  0.251  0.251  0.600-  65 2.13  58 2.73  55 2.73  53 2.76  50 2.76  33 2.77  34 2.81  37 2.81
                            38 2.83
  55  0.251  0.499  0.600-  65 2.13  59 2.73  54 2.73  56 2.76  51 2.77  35 2.77  34 2.80  39 2.81
                            38 2.84
  56  0.250  0.750  0.598-  53 2.74  60 2.74  35 2.74  52 2.75  36 2.76  55 2.76  40 2.76  39 2.76

  57  0.500  1.000  0.599-  60 2.74  53 2.75  61 2.75  41 2.75  58 2.75  44 2.76  40 2.76  37 2.77

  58  0.499  0.250  0.599-  65 2.15  54 2.73  59 2.74  57 2.75  41 2.75  62 2.76  37 2.78  42 2.79
                            38 2.82
  59  0.499  0.500  0.599-  65 2.14  55 2.73  58 2.74  63 2.75  43 2.75  60 2.75  39 2.79  42 2.79
                            38 2.82
  60  0.500  0.750  0.598-  57 2.74  56 2.74  43 2.75  64 2.75  59 2.75  44 2.76  40 2.76  39 2.76

  61  0.750  1.000  0.598-  49 2.74  57 2.75  62 2.75  64 2.75  45 2.76  41 2.76  48 2.76  44 2.76

  62  0.750  0.250  0.598-  63 2.74  50 2.74  61 2.75  41 2.75  58 2.76  45 2.76  46 2.76  42 2.76

  63  0.749  0.499  0.599-  62 2.74  51 2.74  59 2.75  64 2.75  43 2.75  42 2.76  46 2.77  47 2.77

  64  0.750  0.750  0.598-  52 2.74  61 2.75  60 2.75  63 2.75  47 2.75  43 2.75  44 2.76  48 2.76

  65  0.375  0.375  0.630-  66 1.37  55 2.13  54 2.13  59 2.14  58 2.15
  66  0.373  0.376  0.676-  69 1.03  65 1.37
  67  0.605  0.366  0.696-  68 0.98  70 0.99
  68  0.634  0.282  0.693-  67 0.98
  69  0.463  0.371  0.686-  66 1.03
  70  0.644  0.408  0.671-  67 0.99
 
  LATTYP: Found a simple tetragonal cell.
 ALAT       =    10.9820000000
 C/A-ratio  =     2.7317428519
  
  Lattice vectors:
  
 A1 = (  10.9820000000,   0.0000000000,   0.0000000000)
 A2 = (   0.0000000000,  10.9820000000,   0.0000000000)
 A3 = (   0.0000000000,   0.0000000000,  30.0000000000)


Analysis of symmetry for initial positions (statically):
=====================================================================
 Subroutine PRICEL returns:
 Original cell was already a primitive cell.
 

 Routine SETGRP: Setting up the symmetry group for a 
 simple tetragonal supercell.


 Subroutine GETGRP returns: Found  1 space group operations
 (whereof  1 operations were pure point group operations)
 out of a pool of 16 trial point group operations.


The static configuration has the point symmetry C_1 .


Analysis of symmetry for dynamics (positions and initial velocities):
=====================================================================
 Subroutine PRICEL returns:
 Original cell was already a primitive cell.
 

 Routine SETGRP: Setting up the symmetry group for a 
 simple tetragonal supercell.


 Subroutine GETGRP returns: Found  1 space group operations
 (whereof  1 operations were pure point group operations)
 out of a pool of 16 trial point group operations.


The dynamic configuration has the point symmetry C_1 .


Analysis of constrained symmetry for selective dynamics:
=====================================================================
 Subroutine PRICEL returns:
 Original cell was already a primitive cell.
 

 Routine SETGRP: Setting up the symmetry group for a 
 simple tetragonal supercell.


 Subroutine GETGRP returns: Found  1 space group operations
 (whereof  1 operations were pure point group operations)
 out of a pool of 16 trial point group operations.


The constrained configuration has the point symmetry C_1 .


Analysis of structural, dynamic, and magnetic symmetry:
=====================================================================
 Subroutine PRICEL returns:
 Original cell was already a primitive cell.
 

 Routine SETGRP: Setting up the symmetry group for a 
 simple tetragonal supercell.


 Subroutine GETGRP returns: Found  1 space group operations
 (whereof  1 operations were pure point group operations)
 out of a pool of 16 trial point group operations.


The magnetic configuration has the point symmetry C_1 .


 Subroutine INISYM returns: Found  1 space group operations
 (whereof  1 operations are pure point group operations),
 and found     1 'primitive' translations

 
 
 KPOINTS: K-Point Grid                            

Automatic generation of k-mesh.
Space group operators:
 irot       det(A)        alpha          n_x          n_y          n_z        tau_x        tau_y        tau_z
    1     1.000000     0.000001     1.000000     0.000000     0.000000     0.000000     0.000000     0.000000
 
 Subroutine IBZKPT returns following result:
 ===========================================
 
 Found      8 irreducible k-points:
 
 Following reciprocal coordinates:
            Coordinates               Weight
  0.125000  0.125000  0.000000      2.000000
  0.375000  0.125000  0.000000      2.000000
 -0.375000  0.125000  0.000000      2.000000
 -0.125000  0.125000  0.000000      2.000000
  0.125000  0.375000  0.000000      2.000000
  0.375000  0.375000  0.000000      2.000000
 -0.375000  0.375000  0.000000      2.000000
 -0.125000  0.375000  0.000000      2.000000
 
 Following cartesian coordinates:
            Coordinates               Weight
  0.011382  0.011382  0.000000      2.000000
  0.034147  0.011382  0.000000      2.000000
 -0.034147  0.011382  0.000000      2.000000
 -0.011382  0.011382  0.000000      2.000000
  0.011382  0.034147  0.000000      2.000000
  0.034147  0.034147  0.000000      2.000000
 -0.034147  0.034147  0.000000      2.000000
 -0.011382  0.034147  0.000000      2.000000
 


--------------------------------------------------------------------------------------------------------




 Dimension of arrays:
   k-points           NKPTS =      8   k-points in BZ     NKDIM =      8   number of bands    NBANDS=    480
   number of dos      NEDOS =   1200   number of ions     NIONS =     70
   non local maximal  LDIM  =      6   non local SUM 2l+1 LMDIM =     18
   total plane-waves  NPLWV = ******
   max r-space proj   IRMAX =   5807   max aug-charges    IRDMAX=  13820
   dimension x,y,z NGX =    72 NGY =   72 NGZ =  196
   dimension x,y,z NGXF=   144 NGYF=  144 NGZF=  392
   support grid    NGXF=   144 NGYF=  144 NGZF=  392
   ions per type =              64   1   2   3
   NGX,Y,Z   is equivalent  to a cutoff of  10.90, 10.90, 10.86 a.u.
   NGXF,Y,Z  is equivalent  to a cutoff of  21.80, 21.80, 21.72 a.u.

 SYSTEM =  Pd_100_surface                          
 POSCAR =  Pd N O H                                

 Startparameter for this run:
   NWRITE =      2    write-flag & timer
   PREC   = accura    normal or accurate (medium, high low for compatibility)
   ISTART =      0    job   : 0-new  1-cont  2-samecut
   ICHARG =      2    charge: 1-file 2-atom 10-const
   ISPIN  =      2    spin polarized calculation?
   LNONCOLLINEAR =      F non collinear calculations
   LSORBIT =      F    spin-orbit coupling
   INIWAV =      1    electr: 0-lowe 1-rand  2-diag
   LASPH  =      F    aspherical Exc in radial PAW
   METAGGA=      F    non-selfconsistent MetaGGA calc.

 Electronic Relaxation 1
   ENCUT  =  400.0 eV  29.40 Ry    5.42 a.u.  17.91 17.91 48.92*2*pi/ulx,y,z
   ENINI  =  400.0     initial cutoff
   ENAUG  =  627.1 eV  augmentation charge cutoff
   NELM   =    100;   NELMIN=  2; NELMDL=  0     # of ELM steps 
   EDIFF  = 0.1E-04   stopping-criterion for ELM
   LREAL  =      T    real-space projection
   NLSPLINE    = F    spline interpolate recip. space projectors
   LCOMPAT=      F    compatible to vasp.4.4
   GGA_COMPAT  = T    GGA compatible to vasp.4.4-vasp.4.6
   LMAXPAW     = -100 max onsite density
   LMAXMIX     =    2 max onsite mixed and CHGCAR
   VOSKOWN=      0    Vosko Wilk Nusair interpolation
   ROPT   =   -0.00025  -0.00025  -0.00025  -0.00025
 Ionic relaxation
   EDIFFG = -.2E-01   stopping-criterion for IOM
   NSW    =    300    number of steps for IOM
   NBLOCK =      1;   KBLOCK =    300    inner block; outer block 
   IBRION =      2    ionic relax: 0-MD 1-quasi-New 2-CG
   NFREE  =      1    steps in history (QN), initial steepest desc. (CG)
   ISIF   =      2    stress and relaxation
   IWAVPR =     11    prediction:  0-non 1-charg 2-wave 3-comb
   ISYM   =      2    0-nonsym 1-usesym 2-fastsym
   LCORR  =      T    Harris-Foulkes like correction to forces

   POTIM  = 0.5000    time-step for ionic-motion
   TEIN   =    0.0    initial temperature
   TEBEG  =    0.0;   TEEND  =   0.0 temperature during run
   SMASS  =  -3.00    Nose mass-parameter (am)
   estimated Nose-frequenzy (Omega)   =  0.10E-29 period in steps =****** mass=  -0.276E-26a.u.
   SCALEE = 1.0000    scale energy and forces
   NPACO  =    256;   APACO  = 16.0  distance and # of slots for P.C.
   PSTRESS=    0.0 pullay stress

  Mass of Ions in am
   POMASS = 106.42 14.00 16.00  1.00
  Ionic Valenz
   ZVAL   =  10.00  5.00  6.00  1.00
  Atomic Wigner-Seitz radii
   RWIGS  =  -1.00 -1.00 -1.00 -1.00
  virtual crystal weights 
   VCA    =   1.00  1.00  1.00  1.00
   NELECT =     660.0000    total number of electrons
   NUPDOWN=      -1.0000    fix difference up-down

 DOS related values:
   EMIN   =  10.00;   EMAX   =-10.00  energy-range for DOS
   EFERMI =   0.00
   ISMEAR =     1;   SIGMA  =   0.20  broadening in eV -4-tet -1-fermi 0-gaus

 Electronic relaxation 2 (details)
   IALGO  =     68    algorithm
   LDIAG  =      T    sub-space diagonalisation (order eigenvalues)
   LSUBROT=      F    optimize rotation matrix (better conditioning)
   TURBO    =      0    0=normal 1=particle mesh
   IRESTART =      0    0=no restart 2=restart with 2 vectors
   NREBOOT  =      0    no. of reboots
   NMIN     =      0    reboot dimension
   EREF     =   0.00    reference energy to select bands
   IMIX   =      4    mixing-type and parameters
     AMIX     =   0.40;   BMIX     =  1.00
     AMIX_MAG =   1.60;   BMIX_MAG =  1.00
     AMIN     =   0.10
     WC   =   100.;   INIMIX=   1;  MIXPRE=   1;  MAXMIX= -45

 Intra band minimization:
   WEIMIN = 0.0010     energy-eigenvalue tresh-hold
   EBREAK =  0.52E-08  absolut break condition
   DEPER  =   0.30     relativ break condition  

   TIME   =   0.40     timestep for ELM

  volume/ion in A,a.u.               =      51.69       348.80
  Fermi-wavevector in a.u.,A,eV,Ry     =   0.928456  1.754528 11.728643  0.862031
  Thomas-Fermi vector in A             =   2.054635
 
 Write flags
   LWAVE        =      F    write WAVECAR
   LDOWNSAMPLE  =      F    k-point downsampling of WAVECAR
   LCHARG       =      F    write CHGCAR
   LVTOT        =      F    write LOCPOT, total local potential
   LVHAR        =      F    write LOCPOT, Hartree potential only
   LELF         =      F    write electronic localiz. function (ELF)
   LORBIT       =     11    0 simple, 1 ext, 2 COOP (PROOUT), +10 PAW based schemes


 Dipole corrections
   LMONO  =      F    monopole corrections only (constant potential shift)
   LDIPOL =      T    correct potential (dipole corrections)
   IDIPOL =      3    1-x, 2-y, 3-z, 4-all directions 
   EPSILON=  1.0000000 bulk dielectric constant

 Exchange correlation treatment:
   GGA     =    --    GGA type
   LEXCH   =     8    internal setting for exchange type
   VOSKOWN=      0    Vosko Wilk Nusair interpolation
   LHFCALC =     F    Hartree Fock is set to
   LHFONE  =     F    Hartree Fock one center treatment
   AEXX    =    0.0000 exact exchange contribution

 Linear response parameters
   LEPSILON=     F    determine dielectric tensor
   LRPA    =     F    only Hartree local field effects (RPA)
   LNABLA  =     F    use nabla operator in PAW spheres
   LVEL    =     F    velocity operator in full k-point grid
   LINTERFAST=   F  fast interpolation
   KINTER  =     0    interpolate to denser k-point grid
   CSHIFT  =0.1000    complex shift for real part using Kramers Kronig
   OMEGAMAX=  -1.0    maximum frequency
   DEG_THRESHOLD= 0.2000000E-02 threshold for treating states as degnerate
   RTIME   =   -0.100 relaxation time in fs
  (WPLASMAI=    0.000 imaginary part of plasma frequency in eV, 0.658/RTIME)
   DFIELD  = 0.0000000 0.0000000 0.0000000 field for delta impulse in time
 
 Orbital magnetization related:
   ORBITALMAG=     F  switch on orbital magnetization
   LCHIMAG   =     F  perturbation theory with respect to B field
   DQ        =  0.001000  dq finite difference perturbation B field
   LLRAUG    =     F  two centre corrections for induced B field



--------------------------------------------------------------------------------------------------------


 conjugate gradient relaxation of ions
   using selective dynamics as specified on POSCAR
 charge density and potential will be updated during run
 spin polarized calculation
 RMM-DIIS sequential band-by-band and
  variant of blocked Davidson during initial phase
 perform sub-space diagonalisation
    before iterative eigenvector-optimisation
 modified Broyden-mixing scheme, WC =      100.0
 initial mixing is a Kerker type mixing with AMIX =  0.4000 and BMIX =      1.0000
 Hartree-type preconditioning will be used
 using additional bands          150
 real space projection scheme for non local part
 use partial core corrections
 calculate Harris-corrections to forces 
   (improved forces if not selfconsistent)
 use gradient corrections 
 use of overlap-Matrix (Vanderbilt PP)
 Methfessel and Paxton  Order N= 1 SIGMA  =   0.20


--------------------------------------------------------------------------------------------------------


  energy-cutoff  :      400.00
  volume of cell :     3618.13
      direct lattice vectors                 reciprocal lattice vectors
    10.982000000  0.000000000  0.000000000     0.091058095  0.000000000  0.000000000
     0.000000000 10.982000000  0.000000000     0.000000000  0.091058095  0.000000000
     0.000000000  0.000000000 30.000000000     0.000000000  0.000000000  0.033333333

  length of vectors
    10.982000000 10.982000000 30.000000000     0.091058095  0.091058095  0.033333333


 
 k-points in units of 2pi/SCALE and weight: K-Point Grid                            
   0.01138226  0.01138226  0.00000000       0.125
   0.03414679  0.01138226  0.00000000       0.125
  -0.03414679  0.01138226  0.00000000       0.125
  -0.01138226  0.01138226  0.00000000       0.125
   0.01138226  0.03414679  0.00000000       0.125
   0.03414679  0.03414679  0.00000000       0.125
  -0.03414679  0.03414679  0.00000000       0.125
  -0.01138226  0.03414679  0.00000000       0.125
 
 k-points in reciprocal lattice and weights: K-Point Grid                            
   0.12500000  0.12500000  0.00000000       0.125
   0.37500000  0.12500000  0.00000000       0.125
  -0.37500000  0.12500000  0.00000000       0.125
  -0.12500000  0.12500000  0.00000000       0.125
   0.12500000  0.37500000  0.00000000       0.125
   0.37500000  0.37500000  0.00000000       0.125
  -0.37500000  0.37500000  0.00000000       0.125
  -0.12500000  0.37500000  0.00000000       0.125
 
 position of ions in fractional coordinates (direct lattice) 
   0.12499955  0.12499955  0.40293227
   0.12499955  0.37499864  0.40293227
   0.12499955  0.62499774  0.40293227
   0.12499955  0.87499683  0.40293227
   0.37499864  0.12499955  0.40293227
   0.37499864  0.37499864  0.40293227
   0.37499864  0.62499774  0.40293227
   0.37499864  0.87499683  0.40293227
   0.62499774  0.12499955  0.40293227
   0.62499774  0.37499864  0.40293227
   0.62499774  0.62499774  0.40293227
   0.62499774  0.87499683  0.40293227
   0.87499683  0.12499955  0.40293227
   0.87499683  0.37499864  0.40293227
   0.87499683  0.62499774  0.40293227
   0.87499683  0.87499683  0.40293227
   0.00005513  0.99999081  0.46812039
   0.00002561  0.24964605  0.46812231
   0.99993320  0.50033870  0.46814372
   0.00000386  0.75001543  0.46809178
   0.24952224  0.99997946  0.46812247
   0.24946617  0.24957443  0.46790833
   0.24939411  0.50035846  0.46790406
   0.24947710  0.74995648  0.46811338
   0.50034498  0.99994855  0.46806888
   0.50028760  0.24955879  0.46792264
   0.50024011  0.50039652  0.46789204
   0.50032000  0.74997882  0.46806232
   0.75003920  0.99989274  0.46815334
   0.75008117  0.24954282  0.46810282
   0.74999652  0.50033840  0.46808007
   0.74999675  0.74993779  0.46815973
   0.12631502  0.12659029  0.53394643
   0.12410182  0.37491798  0.53309384
   0.12614002  0.62331983  0.53395887
   0.12494697  0.87497466  0.53313885
   0.37472793  0.12400520  0.53282489
   0.37442852  0.37497556  0.53095255
   0.37460057  0.62591900  0.53280182
   0.37502134  0.87497933  0.53296211
   0.62371618  0.12605738  0.53376407
   0.62593034  0.37492995  0.53275781
   0.62362349  0.62366170  0.53379117
   0.62495806  0.87488578  0.53315354
   0.87511752  0.12498447  0.53317337
   0.87498546  0.37498927  0.53302244
   0.87489650  0.62484207  0.53318312
   0.87489325  0.87489475  0.53307310
   0.99987884  0.99984213  0.59823826
   0.99935673  0.25005830  0.59865323
   0.99890119  0.49982672  0.59864798
   0.99967707  0.75008624  0.59823455
   0.25011000  0.99965644  0.59847286
   0.25099396  0.25062194  0.60035153
   0.25069079  0.49939687  0.60027084
   0.24986176  0.75037343  0.59843531
   0.50009693  0.99957819  0.59852951
   0.49914581  0.25017004  0.59918188
   0.49907587  0.49956806  0.59921842
   0.49970167  0.75031700  0.59848450
   0.75009858  0.99995382  0.59834240
   0.75011102  0.25003426  0.59845733
   0.74934233  0.49923643  0.59872628
   0.74998629  0.74968422  0.59829939
   0.37463691  0.37540338  0.63032982
   0.37295999  0.37597994  0.67598073
   0.60486447  0.36578119  0.69607763
   0.63404696  0.28190512  0.69317571
   0.46300403  0.37147987  0.68601983
   0.64395551  0.40794800  0.67062697
 
 position of ions in cartesian coordinates  (Angst):
   1.37274503  1.37274503 12.08796804
   1.37274503  4.11823509 12.08796804
   1.37274503  6.86372514 12.08796804
   1.37274503  9.60921520 12.08796804
   4.11823509  1.37274503 12.08796804
   4.11823509  4.11823509 12.08796804
   4.11823509  6.86372514 12.08796804
   4.11823509  9.60921520 12.08796804
   6.86372514  1.37274503 12.08796804
   6.86372514  4.11823509 12.08796804
   6.86372514  6.86372514 12.08796804
   6.86372514  9.60921520 12.08796804
   9.60921520  1.37274503 12.08796804
   9.60921520  4.11823509 12.08796804
   9.60921520  6.86372514 12.08796804
   9.60921520  9.60921520 12.08796804
   0.00060544 10.98189912 14.04361167
   0.00028130  2.74161288 14.04366945
  10.98126644  5.49471960 14.04431152
   0.00004241  8.23666948 14.04275332
   2.74025326 10.98177446 14.04367407
   2.73963744  2.74082640 14.03725005
   2.73884614  5.49493659 14.03712165
   2.73975754  8.23602201 14.04340147
   5.49478862 10.98143495 14.04206654
   5.49415841  2.74065465 14.03767906
   5.49363687  5.49535458 14.03676134
   5.49451425  8.23626736 14.04186966
   8.23693046 10.98082206 14.04460009
   8.23739137  2.74047929 14.04308464
   8.23646181  5.49471631 14.04240208
   8.23646434  8.23581682 14.04479187
   1.38719154  1.39021454 16.01839285
   1.36288617  4.11734930 15.99281514
   1.38526967  6.84529841 16.01876618
   1.37216758  9.60897171 15.99416553
   4.11526208  1.36182514 15.98474667
   4.11197404  4.11798161 15.92857656
   4.11386347  6.87384248 15.98405462
   4.11848437  9.60902295 15.98886331
   6.84965109  1.38436217 16.01292225
   6.87396695  4.11748076 15.98273421
   6.84863312  6.84905279 16.01373518
   6.86328943  9.60799565 15.99460633
   9.61054056  1.37257941 15.99520112
   9.60909030  4.11813219 15.99067321
   9.60811337  6.86201559 15.99549349
   9.60807768  9.60809411 15.99219285
  10.98066939 10.98026626 17.94714783
  10.97493562  2.74614024 17.95959682
  10.96993288  5.48909700 17.95943948
  10.97845358  8.23744710 17.94703660
   2.74670802 10.97822703 17.95418575
   2.75641568  2.75233012 18.01054602
   2.75308625  5.48437645 18.00812530
   2.74398183  8.24060105 17.95305932
   5.49206452 10.97736767 17.95588542
   5.48161923  2.74736740 17.97545654
   5.48085125  5.48625647 17.97655253
   5.48772369  8.23998133 17.95453505
   8.23758259 10.98149290 17.95027211
   8.23771920  2.74587626 17.95371999
   8.22927751  5.48261445 17.96178834
   8.23634946  8.23303209 17.94898162
   4.11426254  4.12267990 18.90989457
   4.09584658  4.12901173 20.27942189
   6.64262162  4.01700906 20.88232890
   6.96310370  3.09588206 20.79527116
   5.08471024  4.07959196 20.58059481
   7.07191938  4.48008493 20.11880924
 


--------------------------------------------------------------------------------------------------------


 k-point  1 :   0.1250 0.1250 0.0000  plane waves:   65671
 k-point  2 :   0.3750 0.1250 0.0000  plane waves:   65719
 k-point  3 :  -0.3750 0.1250 0.0000  plane waves:   65719
 k-point  4 :  -0.1250 0.1250 0.0000  plane waves:   65671
 k-point  5 :   0.1250 0.3750 0.0000  plane waves:   65719
 k-point  6 :   0.3750 0.3750 0.0000  plane waves:   65776
 k-point  7 :  -0.3750 0.3750 0.0000  plane waves:   65776
 k-point  8 :  -0.1250 0.3750 0.0000  plane waves:   65719

 maximum and minimum number of plane-waves per node :     65776    65671

 maximum number of plane-waves:     65776
 maximum index in each direction: 
   IXMAX=   18   IYMAX=   17   IZMAX=   48
   IXMIN=  -18   IYMIN=  -18   IZMIN=  -48


 serial   3D FFT for wavefunctions
 parallel 3D FFT for charge:
    minimum data exchange during FFTs selected (reduces bandwidth)


 total amount of memory used by VASP MPI-rank0   269680. kBytes
=======================================================================

   base      :      30000. kBytes
   nonlr-proj:      51596. kBytes
   fftplans  :       7679. kBytes
   grid      :      92335. kBytes
   one-center:       2177. kBytes
   wavefun   :      85893. kBytes
 
     INWAV:  cpu time    0.0001: real time    0.0004
 Broyden mixing: mesh for mixing (old mesh)
   NGX = 35   NGY = 35   NGZ = 97
  (NGX  =144   NGY  =144   NGZ  =392)
  gives a total of 118825 points

 initial charge density was supplied:
 charge density of overlapping atoms calculated
 number of electron     660.0000000 magnetization      70.0000000
 keeping initial charge density in first step


--------------------------------------------------------------------------------------------------------


 Maximum index for non-local projection operator         5570
 Maximum index for augmentation-charges          679 (set IRDMAX)


--------------------------------------------------------------------------------------------------------


 First call to EWALD:  gamma=   0.115
 Maximum number of real-space cells 4x 4x 2
 Maximum number of reciprocal cells 2x 2x 5

    FEWALD:  cpu time    0.0167: real time    0.0136


--------------------------------------- Iteration      1(   1)  ---------------------------------------


    POTLOK:  cpu time    0.4476: real time    0.4735
    SETDIJ:  cpu time    0.2352: real time    0.1373
     EDDAV:  cpu time   66.9685: real time   33.7828
       DOS:  cpu time    0.1701: real time    0.1662
    --------------------------------------------
      LOOP:  cpu time   67.8214: real time   34.5598

 eigenvalue-minimisations  : 15360
 total energy-change (2. order) : 0.3695212E+04  (-0.2465400E+05)
 number of electron     660.0000000 magnetization      70.0000000
 augmentation part      660.0000000 magnetization      70.0000000

 DIPCOR: dipole corrections for dipol
 direction  3 min pos     1,
 dipolmoment           0.000000      0.000000     -0.000156 electrons x Angstroem
 Tr[quadrupol]    -13861.693350

 energy correction for charged system         0.000000 eV
 dipol+quadrupol energy correction           -0.000000 eV
 added-field ion interaction          0.000909 eV  (added to PSCEN)


 Free energy of the ion-electron system (eV)
  ---------------------------------------------------
  alpha Z        PSCENC =       774.60485716
  Ewald energy   TEWEN  =    384499.70828571
  -Hartree energ DENC   =   -437876.98119175
  -exchange      EXHF   =         0.00000000
  -V(xc)+E(xc)   XCENC  =     -1794.83884698
  PAW double counting   =     52528.45871130   -48551.45505577
  entropy T*S    EENTRO =         0.00211398
  eigenvalues    EBANDS =      1125.66702672
  atomic energy  EATOM  =     52990.04641755
  Solvation  Ediel_sol  =         0.00000000
  ---------------------------------------------------
  free energy    TOTEN  =      3695.21231793 eV

  energy without entropy =     3695.21020395  energy(sigma->0) =     3695.21161327


--------------------------------------------------------------------------------------------------------




--------------------------------------- Iteration      1(   2)  ---------------------------------------


     EDDAV:  cpu time   77.7495: real time   38.9790
       DOS:  cpu time    0.0040: real time    0.0020
    --------------------------------------------
      LOOP:  cpu time   77.7535: real time   38.9810

 eigenvalue-minimisations  : 18048
 total energy-change (2. order) :-0.3866336E+04  (-0.3648145E+04)
 number of electron     660.0000000 magnetization      70.0000000
 augmentation part      660.0000000 magnetization      70.0000000

 DIPCOR: dipole corrections for dipol
 direction  3 min pos     1,
 dipolmoment           0.000000      0.000000     -0.000156 electrons x Angstroem
 Tr[quadrupol]    -13861.693350

 energy correction for charged system         0.000000 eV
 dipol+quadrupol energy correction           -0.000000 eV
 added-field ion interaction          0.000909 eV  (added to PSCEN)


 Free energy of the ion-electron system (eV)
  ---------------------------------------------------
  alpha Z        PSCENC =       774.60485716
  Ewald energy   TEWEN  =    384499.70828571
  -Hartree energ DENC   =   -437876.98119175
  -exchange      EXHF   =         0.00000000
  -V(xc)+E(xc)   XCENC  =     -1794.83884698
  PAW double counting   =     52528.45871130   -48551.45505577
  entropy T*S    EENTRO =        -0.00307865
  eigenvalues    EBANDS =     -2740.66399423
  atomic energy  EATOM  =     52990.04641755
  Solvation  Ediel_sol  =         0.00000000
  ---------------------------------------------------
  free energy    TOTEN  =      -171.12389566 eV

  energy without entropy =     -171.12081701  energy(sigma->0) =     -171.12286944


--------------------------------------------------------------------------------------------------------




--------------------------------------- Iteration      1(   3)  ---------------------------------------


     EDDAV:  cpu time   84.5128: real time   42.3845
       DOS:  cpu time    0.0043: real time    0.0021
    --------------------------------------------
      LOOP:  cpu time   84.5171: real time   42.3867

 eigenvalue-minimisations  : 18816
 total energy-change (2. order) :-0.1785242E+03  (-0.1733866E+03)
 number of electron     660.0000000 magnetization      70.0000000
 augmentation part      660.0000000 magnetization      70.0000000

 DIPCOR: dipole corrections for dipol
 direction  3 min pos     1,
 dipolmoment           0.000000      0.000000     -0.000156 electrons x Angstroem
 Tr[quadrupol]    -13861.693350

 energy correction for charged system         0.000000 eV
 dipol+quadrupol energy correction           -0.000000 eV
 added-field ion interaction          0.000909 eV  (added to PSCEN)


 Free energy of the ion-electron system (eV)
  ---------------------------------------------------
  alpha Z        PSCENC =       774.60485716
  Ewald energy   TEWEN  =    384499.70828571
  -Hartree energ DENC   =   -437876.98119175
  -exchange      EXHF   =         0.00000000
  -V(xc)+E(xc)   XCENC  =     -1794.83884698
  PAW double counting   =     52528.45871130   -48551.45505577
  entropy T*S    EENTRO =         0.16730315
  eigenvalues    EBANDS =     -2919.35855829
  atomic energy  EATOM  =     52990.04641755
  Solvation  Ediel_sol  =         0.00000000
  ---------------------------------------------------
  free energy    TOTEN  =      -349.64807791 eV

  energy without entropy =     -349.81538106  energy(sigma->0) =     -349.70384563


--------------------------------------------------------------------------------------------------------




--------------------------------------- Iteration      1(   4)  ---------------------------------------


     EDDAV:  cpu time   74.7062: real time   37.4553
       DOS:  cpu time    0.0042: real time    0.0021
    --------------------------------------------
      LOOP:  cpu time   74.7104: real time   37.4574

 eigenvalue-minimisations  : 17184
 total energy-change (2. order) :-0.3093078E+01  (-0.3088010E+01)
 number of electron     660.0000000 magnetization      70.0000000
 augmentation part      660.0000000 magnetization      70.0000000

 DIPCOR: dipole corrections for dipol
 direction  3 min pos     1,
 dipolmoment           0.000000      0.000000     -0.000156 electrons x Angstroem
 Tr[quadrupol]    -13861.693350

 energy correction for charged system         0.000000 eV
 dipol+quadrupol energy correction           -0.000000 eV
 added-field ion interaction          0.000909 eV  (added to PSCEN)


 Free energy of the ion-electron system (eV)
  ---------------------------------------------------
  alpha Z        PSCENC =       774.60485716
  Ewald energy   TEWEN  =    384499.70828571
  -Hartree energ DENC   =   -437876.98119175
  -exchange      EXHF   =         0.00000000
  -V(xc)+E(xc)   XCENC  =     -1794.83884698
  PAW double counting   =     52528.45871130   -48551.45505577
  entropy T*S    EENTRO =         0.16722859
  eigenvalues    EBANDS =     -2922.45156179
  atomic energy  EATOM  =     52990.04641755
  Solvation  Ediel_sol  =         0.00000000
  ---------------------------------------------------
  free energy    TOTEN  =      -352.74115597 eV

  energy without entropy =     -352.90838456  energy(sigma->0) =     -352.79689883


--------------------------------------------------------------------------------------------------------




--------------------------------------- Iteration      1(   5)  ---------------------------------------


     EDDAV:  cpu time   94.6476: real time   47.4428
       DOS:  cpu time    0.0040: real time    0.0020
    CHARGE:  cpu time    2.3309: real time    2.0477
    MIXING:  cpu time    0.0208: real time    0.0141
    --------------------------------------------
      LOOP:  cpu time   97.0034: real time   49.5067

 eigenvalue-minimisations  : 21312
 total energy-change (2. order) :-0.1317920E+00  (-0.1317739E+00)
 number of electron     659.9999425 magnetization      67.4169628
 augmentation part      261.1691069 magnetization      53.5968589

 DIPCOR: dipole corrections for dipol
 direction  3 min pos     1,
 dipolmoment           0.000000      0.000000     -0.000156 electrons x Angstroem
 Tr[quadrupol]    -13861.693350

 energy correction for charged system         0.000000 eV
 dipol+quadrupol energy correction           -0.000000 eV
 added-field ion interaction          0.000909 eV  (added to PSCEN)


 Broyden mixing:
  rms(total) = 0.59838E+01    rms(broyden)= 0.59829E+01
  rms(prec ) = 0.60402E+01
  weight for this iteration     100.00

 Free energy of the ion-electron system (eV)
  ---------------------------------------------------
  alpha Z        PSCENC =       774.60485716
  Ewald energy   TEWEN  =    384499.70828571
  -Hartree energ DENC   =   -437876.98119175
  -exchange      EXHF   =         0.00000000
  -V(xc)+E(xc)   XCENC  =     -1794.83884698
  PAW double counting   =     52528.45871130   -48551.45505577
  entropy T*S    EENTRO =         0.16722782
  eigenvalues    EBANDS =     -2922.58335307
  atomic energy  EATOM  =     52990.04641755
  Solvation  Ediel_sol  =         0.00000000
  ---------------------------------------------------
  free energy    TOTEN  =      -352.87294802 eV

  energy without entropy =     -353.04017584  energy(sigma->0) =     -352.92869063


--------------------------------------------------------------------------------------------------------




--------------------------------------- Iteration      1(   6)  ---------------------------------------


    POTLOK:  cpu time    0.3093: real time    0.2405
    SETDIJ:  cpu time    0.0238: real time    0.0147
    EDDIAG:  cpu time   11.7654: real time    5.9288
  RMM-DIIS:  cpu time   30.0615: real time   15.1596
    ORTHCH:  cpu time    2.7585: real time    1.3852
       DOS:  cpu time    0.0040: real time    0.0020
    CHARGE:  cpu time    2.1839: real time    1.9009
    MIXING:  cpu time    0.0218: real time    0.0172
    --------------------------------------------
      LOOP:  cpu time   47.1282: real time   24.6490

 eigenvalue-minimisations  : 15388
 total energy-change (2. order) : 0.3604725E+02  (-0.8158668E+01)
 number of electron     659.9999401 magnetization      64.2913707
 augmentation part      271.6127818 magnetization      48.5650268

 DIPCOR: dipole corrections for dipol
 direction  3 min pos     1,
 dipolmoment           0.000000      0.000000     -0.033250 electrons x Angstroem
 Tr[quadrupol]    -13867.028240

 energy correction for charged system         0.000000 eV
 dipol+quadrupol energy correction           -0.000028 eV
 added-field ion interaction          0.194267 eV  (added to PSCEN)


 Broyden mixing:
  rms(total) = 0.32668E+01    rms(broyden)= 0.32664E+01
  rms(prec ) = 0.33230E+01
  weight for this iteration     100.00

 eigenvalues of (default mixing * dielectric matrix)
  average eigenvalue GAMMA=   1.0198
  1.0198

 Free energy of the ion-electron system (eV)
  ---------------------------------------------------
  alpha Z        PSCENC =       774.79818752
  Ewald energy   TEWEN  =    384499.70828571
  -Hartree energ DENC   =   -437707.70811192
  -exchange      EXHF   =         0.00000000
  -V(xc)+E(xc)   XCENC  =     -1789.38020782
  PAW double counting   =     56405.54544062   -52505.25156298
  entropy T*S    EENTRO =         0.09501464
  eigenvalues    EBANDS =     -2984.67916568
  atomic energy  EATOM  =     52990.04641755
  Solvation  Ediel_sol  =         0.00000000
  ---------------------------------------------------
  free energy    TOTEN  =      -316.82570235 eV

  energy without entropy =     -316.92071698  energy(sigma->0) =     -316.85737389


--------------------------------------------------------------------------------------------------------




--------------------------------------- Iteration      1(   7)  ---------------------------------------


    POTLOK:  cpu time    0.3870: real time    0.2603
    SETDIJ:  cpu time    0.0197: real time    0.0128
    EDDIAG:  cpu time   11.6743: real time    5.8552
  RMM-DIIS:  cpu time   29.9110: real time   15.0432
    ORTHCH:  cpu time    2.7657: real time    1.3885
       DOS:  cpu time    0.0038: real time    0.0019
    CHARGE:  cpu time    2.4350: real time    2.1490
    MIXING:  cpu time    0.0062: real time    0.0031
    --------------------------------------------
      LOOP:  cpu time   47.2028: real time   24.7140

 eigenvalue-minimisations  : 15384
 total energy-change (2. order) :-0.2330513E+02  (-0.3064797E+01)
 number of electron     659.9999385 magnetization      63.0645513
 augmentation part      268.9523424 magnetization      49.2793405

 DIPCOR: dipole corrections for dipol
 direction  3 min pos     1,
 dipolmoment           0.000000      0.000000      1.041097 electrons x Angstroem
 Tr[quadrupol]    -13876.733575

 energy correction for charged system         0.000000 eV
 dipol+quadrupol energy correction           -0.027104 eV
 added-field ion interaction         -6.082753 eV  (added to PSCEN)


 Broyden mixing:
  rms(total) = 0.48109E+01    rms(broyden)= 0.48105E+01
  rms(prec ) = 0.59637E+01
  weight for this iteration     100.00

 eigenvalues of (default mixing * dielectric matrix)
  average eigenvalue GAMMA=   0.7742
  1.2028  0.3456

 Free energy of the ion-electron system (eV)
  ---------------------------------------------------
  alpha Z        PSCENC =       768.49409141
  Ewald energy   TEWEN  =    384499.70828571
  -Hartree energ DENC   =   -438091.70376794
  -exchange      EXHF   =         0.00000000
  -V(xc)+E(xc)   XCENC  =     -1787.59233739
  PAW double counting   =     59396.73421226   -55528.79843299
  entropy T*S    EENTRO =        -0.03413704
  eigenvalues    EBANDS =     -2586.98516708
  atomic energy  EATOM  =     52990.04641755
  Solvation  Ediel_sol  =         0.00000000
  ---------------------------------------------------
  free energy    TOTEN  =      -340.13083551 eV

  energy without entropy =     -340.09669847  energy(sigma->0) =     -340.11945649


--------------------------------------------------------------------------------------------------------




--------------------------------------- Iteration      1(   8)  ---------------------------------------


    POTLOK:  cpu time    0.4099: real time    0.2391
    SETDIJ:  cpu time    0.0191: real time    0.0125
    EDDIAG:  cpu time   11.6422: real time    5.8357
  RMM-DIIS:  cpu time   29.7377: real time   14.9346
    ORTHCH:  cpu time    2.7712: real time    1.3912
       DOS:  cpu time    0.0039: real time    0.0020
    CHARGE:  cpu time    2.2680: real time    1.9806
    MIXING:  cpu time    0.0062: real time    0.0031
    --------------------------------------------
      LOOP:  cpu time   46.8581: real time   24.3987

 eigenvalue-minimisations  : 15366
 total energy-change (2. order) : 0.3187167E+01  (-0.2597654E+01)
 number of electron     659.9999416 magnetization      60.5657042
 augmentation part      269.0388135 magnetization      44.6097981

 DIPCOR: dipole corrections for dipol
 direction  3 min pos     1,
 dipolmoment           0.000000      0.000000     -1.650555 electrons x Angstroem
 Tr[quadrupol]    -13878.263302

 energy correction for charged system         0.000000 eV
 dipol+quadrupol energy correction           -0.068125 eV
 added-field ion interaction          9.643594 eV  (added to PSCEN)


 Broyden mixing:
  rms(total) = 0.41846E+01    rms(broyden)= 0.41841E+01
  rms(prec ) = 0.54356E+01
  weight for this iteration     100.00

 eigenvalues of (default mixing * dielectric matrix)
  average eigenvalue GAMMA=   0.8463
  1.7160  0.6829  0.1399

 Free energy of the ion-electron system (eV)
  ---------------------------------------------------
  alpha Z        PSCENC =       784.17941697
  Ewald energy   TEWEN  =    384499.70828571
  -Hartree energ DENC   =   -438103.97204478
  -exchange      EXHF   =         0.00000000
  -V(xc)+E(xc)   XCENC  =     -1785.32780351
  PAW double counting   =     60129.89804337   -56272.51570885
  entropy T*S    EENTRO =        -0.11472257
  eigenvalues    EBANDS =     -2578.84555247
  atomic energy  EATOM  =     52990.04641755
  Solvation  Ediel_sol  =         0.00000000
  ---------------------------------------------------
  free energy    TOTEN  =      -336.94366857 eV

  energy without entropy =     -336.82894601  energy(sigma->0) =     -336.90542772


--------------------------------------------------------------------------------------------------------




--------------------------------------- Iteration      1(   9)  ---------------------------------------


    POTLOK:  cpu time    0.3991: real time    0.2382
    SETDIJ:  cpu time    0.0194: real time    0.0126
    EDDIAG:  cpu time   11.6883: real time    5.8590
  RMM-DIIS:  cpu time   30.1059: real time   15.2941
    ORTHCH:  cpu time    2.7832: real time    1.3970
       DOS:  cpu time    0.0041: real time    0.0021
    CHARGE:  cpu time    2.4629: real time    2.1723
    MIXING:  cpu time    0.0075: real time    0.0038
    --------------------------------------------
      LOOP:  cpu time   47.4703: real time   24.9791

 eigenvalue-minimisations  : 15385
 total energy-change (2. order) : 0.1711582E+02  (-0.1654886E+01)
 number of electron     659.9999377 magnetization      59.4092729
 augmentation part      271.8292248 magnetization      45.6442085

 DIPCOR: dipole corrections for dipol
 direction  3 min pos     1,
 dipolmoment           0.000000      0.000000      0.251939 electrons x Angstroem
 Tr[quadrupol]    -13879.278070

 energy correction for charged system         0.000000 eV
 dipol+quadrupol energy correction           -0.001587 eV
 added-field ion interaction         -1.471986 eV  (added to PSCEN)


 Broyden mixing:
  rms(total) = 0.47673E+01    rms(broyden)= 0.47668E+01
  rms(prec ) = 0.57086E+01
  weight for this iteration     100.00

 eigenvalues of (default mixing * dielectric matrix)
  average eigenvalue GAMMA=   0.7407
  1.9278  0.7331  0.1931  0.1089

 Free energy of the ion-electron system (eV)
  ---------------------------------------------------
  alpha Z        PSCENC =       773.13037432
  Ewald energy   TEWEN  =    384499.70828571
  -Hartree energ DENC   =   -438122.60196102
  -exchange      EXHF   =         0.00000000
  -V(xc)+E(xc)   XCENC  =     -1780.58431424
  PAW double counting   =     61336.54541076   -57498.86616109
  entropy T*S    EENTRO =        -0.02276945
  eigenvalues    EBANDS =     -2517.18313155
  atomic energy  EATOM  =     52990.04641755
  Solvation  Ediel_sol  =         0.00000000
  ---------------------------------------------------
  free energy    TOTEN  =      -319.82784900 eV

  energy without entropy =     -319.80507955  energy(sigma->0) =     -319.82025918


--------------------------------------------------------------------------------------------------------




--------------------------------------- Iteration      1(  10)  ---------------------------------------


    POTLOK:  cpu time    0.4141: real time    0.2593
    SETDIJ:  cpu time    0.0196: real time    0.0127
    EDDIAG:  cpu time   11.8198: real time    5.9249
  RMM-DIIS:  cpu time   29.9222: real time   15.0602
    ORTHCH:  cpu time    2.7428: real time    1.3770
       DOS:  cpu time    0.0040: real time    0.0020
    CHARGE:  cpu time    2.0045: real time    1.7187
    MIXING:  cpu time    0.0073: real time    0.0037
    --------------------------------------------
      LOOP:  cpu time   46.9342: real time   24.3585

 eigenvalue-minimisations  : 15389
 total energy-change (2. order) : 0.2152448E+02  (-0.6629962E+00)
 number of electron     659.9999397 magnetization      58.0031651
 augmentation part      272.7214335 magnetization      40.8108252

 DIPCOR: dipole corrections for dipol
 direction  3 min pos     1,
 dipolmoment           0.000000      0.000000     -0.217166 electrons x Angstroem
 Tr[quadrupol]    -13879.670818

 energy correction for charged system         0.000000 eV
 dipol+quadrupol energy correction           -0.001179 eV
 added-field ion interaction          1.268821 eV  (added to PSCEN)


 Broyden mixing:
  rms(total) = 0.19296E+01    rms(broyden)= 0.19291E+01
  rms(prec ) = 0.20433E+01
  weight for this iteration     100.00

 eigenvalues of (default mixing * dielectric matrix)
  average eigenvalue GAMMA=   0.6847
  2.0438  0.7511  0.3553  0.1639  0.1096

 Free energy of the ion-electron system (eV)
  ---------------------------------------------------
  alpha Z        PSCENC =       775.87158988
  Ewald energy   TEWEN  =    384499.70828571
  -Hartree energ DENC   =   -438133.29063838
  -exchange      EXHF   =         0.00000000
  -V(xc)+E(xc)   XCENC  =     -1777.84854670
  PAW double counting   =     61755.74042048   -57924.03074654
  entropy T*S    EENTRO =        -0.10450889
  eigenvalues    EBANDS =     -2484.39564038
  atomic energy  EATOM  =     52990.04641755
  Solvation  Ediel_sol  =         0.00000000
  ---------------------------------------------------
  free energy    TOTEN  =      -298.30336726 eV

  energy without entropy =     -298.19885838  energy(sigma->0) =     -298.26853097


--------------------------------------------------------------------------------------------------------




--------------------------------------- Iteration      1(  11)  ---------------------------------------


    POTLOK:  cpu time    0.3786: real time    0.2502
    SETDIJ:  cpu time    0.0192: real time    0.0125
    EDDIAG:  cpu time   11.7203: real time    5.8755
  RMM-DIIS:  cpu time   29.9028: real time   15.0246
    ORTHCH:  cpu time    2.8030: real time    1.4073
       DOS:  cpu time    0.0040: real time    0.0020
    CHARGE:  cpu time    2.1002: real time    1.8144
    MIXING:  cpu time    0.0072: real time    0.0036
    --------------------------------------------
      LOOP:  cpu time   46.9352: real time   24.3901

 eigenvalue-minimisations  : 15386
 total energy-change (2. order) : 0.1241985E+01  (-0.6423123E+00)
 number of electron     659.9999403 magnetization      56.2762199
 augmentation part      272.7120568 magnetization      39.6540390

 DIPCOR: dipole corrections for dipol
 direction  3 min pos     1,
 dipolmoment           0.000000      0.000000     -0.259846 electrons x Angstroem
 Tr[quadrupol]    -13879.855358

 energy correction for charged system         0.000000 eV
 dipol+quadrupol energy correction           -0.001688 eV
 added-field ion interaction          1.518185 eV  (added to PSCEN)


 Broyden mixing:
  rms(total) = 0.16559E+01    rms(broyden)= 0.16557E+01
  rms(prec ) = 0.17767E+01
  weight for this iteration     100.00

 eigenvalues of (default mixing * dielectric matrix)
  average eigenvalue GAMMA=   0.6564
  2.1250  0.7922  0.3763  0.3763  0.1598  0.1091

 Free energy of the ion-electron system (eV)
  ---------------------------------------------------
  alpha Z        PSCENC =       776.12044423
  Ewald energy   TEWEN  =    384499.70828571
  -Hartree energ DENC   =   -438147.31612783
  -exchange      EXHF   =         0.00000000
  -V(xc)+E(xc)   XCENC  =     -1778.28306999
  PAW double counting   =     62060.34887176   -58230.39075126
  entropy T*S    EENTRO =        -0.06179200
  eigenvalues    EBANDS =     -2467.23366036
  atomic energy  EATOM  =     52990.04641755
  Solvation  Ediel_sol  =         0.00000000
  ---------------------------------------------------
  free energy    TOTEN  =      -297.06138218 eV

  energy without entropy =     -296.99959018  energy(sigma->0) =     -297.04078485


--------------------------------------------------------------------------------------------------------




--------------------------------------- Iteration      1(  12)  ---------------------------------------


    POTLOK:  cpu time    0.3939: real time    0.2471
    SETDIJ:  cpu time    0.0228: real time    0.0161
    EDDIAG:  cpu time   11.8080: real time    5.9188
  RMM-DIIS:  cpu time   30.0493: real time   15.1902
    ORTHCH:  cpu time    2.7419: real time    1.3764
       DOS:  cpu time    0.0040: real time    0.0020
    CHARGE:  cpu time    2.2288: real time    1.9431
    MIXING:  cpu time    0.0083: real time    0.0042
    --------------------------------------------
      LOOP:  cpu time   47.2570: real time   24.6979

 eigenvalue-minimisations  : 15386
 total energy-change (2. order) :-0.5059101E+00  (-0.1942059E+00)
 number of electron     659.9999402 magnetization      55.3579569
 augmentation part      271.6844747 magnetization      38.4413278

 DIPCOR: dipole corrections for dipol
 direction  3 min pos     1,
 dipolmoment           0.000000      0.000000     -0.128684 electrons x Angstroem
 Tr[quadrupol]    -13882.249749

 energy correction for charged system         0.000000 eV
 dipol+quadrupol energy correction           -0.000414 eV
 added-field ion interaction          0.751852 eV  (added to PSCEN)


 Broyden mixing:
  rms(total) = 0.11669E+01    rms(broyden)= 0.11667E+01
  rms(prec ) = 0.12486E+01
  weight for this iteration     100.00

 eigenvalues of (default mixing * dielectric matrix)
  average eigenvalue GAMMA=   0.6377
  2.1055  0.7678  0.5455  0.5455  0.2304  0.1591  0.1100

 Free energy of the ion-electron system (eV)
  ---------------------------------------------------
  alpha Z        PSCENC =       775.35538593
  Ewald energy   TEWEN  =    384499.70828571
  -Hartree energ DENC   =   -438260.37241510
  -exchange      EXHF   =         0.00000000
  -V(xc)+E(xc)   XCENC  =     -1778.90084927
  PAW double counting   =     62337.84742770   -58508.23252011
  entropy T*S    EENTRO =        -0.03772335
  eigenvalues    EBANDS =     -2352.98130134
  atomic energy  EATOM  =     52990.04641755
  Solvation  Ediel_sol  =         0.00000000
  ---------------------------------------------------
  free energy    TOTEN  =      -297.56729227 eV

  energy without entropy =     -297.52956892  energy(sigma->0) =     -297.55471782


--------------------------------------------------------------------------------------------------------




--------------------------------------- Iteration      1(  13)  ---------------------------------------


    POTLOK:  cpu time    0.4055: real time    0.2507
    SETDIJ:  cpu time    0.0236: real time    0.0167
    EDDIAG:  cpu time   11.7384: real time    5.8846
  RMM-DIIS:  cpu time   30.1137: real time   15.2672
    ORTHCH:  cpu time    2.7391: real time    1.3751
       DOS:  cpu time    0.0042: real time    0.0021
    CHARGE:  cpu time    2.1654: real time    1.8791
    MIXING:  cpu time    0.0086: real time    0.0043
    --------------------------------------------
      LOOP:  cpu time   47.1985: real time   24.6798

 eigenvalue-minimisations  : 15398
 total energy-change (2. order) :-0.2573507E+01  (-0.1073424E+00)
 number of electron     659.9999403 magnetization      53.7052412
 augmentation part      271.5391085 magnetization      37.0916648

 DIPCOR: dipole corrections for dipol
 direction  3 min pos     1,
 dipolmoment           0.000000      0.000000     -0.095142 electrons x Angstroem
 Tr[quadrupol]    -13882.695688

 energy correction for charged system         0.000000 eV
 dipol+quadrupol energy correction           -0.000226 eV
 added-field ion interaction          0.555881 eV  (added to PSCEN)


 Broyden mixing:
  rms(total) = 0.11755E+01    rms(broyden)= 0.11754E+01
  rms(prec ) = 0.12732E+01
  weight for this iteration     100.00

 eigenvalues of (default mixing * dielectric matrix)
  average eigenvalue GAMMA=   0.6395
  2.0438  0.8365  0.8365  0.6605  0.2795  0.1096  0.1664  0.1830

 Free energy of the ion-electron system (eV)
  ---------------------------------------------------
  alpha Z        PSCENC =       775.15960220
  Ewald energy   TEWEN  =    384499.70828571
  -Hartree energ DENC   =   -438283.01505541
  -exchange      EXHF   =         0.00000000
  -V(xc)+E(xc)   XCENC  =     -1780.28039052
  PAW double counting   =     62327.84122270   -58496.76123381
  entropy T*S    EENTRO =         0.02283179
  eigenvalues    EBANDS =     -2332.86247982
  atomic energy  EATOM  =     52990.04641755
  Solvation  Ediel_sol  =         0.00000000
  ---------------------------------------------------
  free energy    TOTEN  =      -300.14079960 eV

  energy without entropy =     -300.16363139  energy(sigma->0) =     -300.14841019


--------------------------------------------------------------------------------------------------------




--------------------------------------- Iteration      1(  14)  ---------------------------------------


    POTLOK:  cpu time    0.4198: real time    0.2507
    SETDIJ:  cpu time    0.0197: real time    0.0127
    EDDIAG:  cpu time   11.6793: real time    5.8543
  RMM-DIIS:  cpu time   30.2456: real time   15.3712
    ORTHCH:  cpu time    2.7513: real time    1.3810
       DOS:  cpu time    0.0042: real time    0.0021
    CHARGE:  cpu time    2.1124: real time    1.8266
    MIXING:  cpu time    0.0092: real time    0.0046
    --------------------------------------------
      LOOP:  cpu time   47.2414: real time   24.7033

 eigenvalue-minimisations  : 15394
 total energy-change (2. order) :-0.4113911E+01  (-0.1340275E+00)
 number of electron     659.9999405 magnetization      51.8269142
 augmentation part      271.4690896 magnetization      35.9335480

 DIPCOR: dipole corrections for dipol
 direction  3 min pos     1,
 dipolmoment           0.000000      0.000000     -0.053004 electrons x Angstroem
 Tr[quadrupol]    -13883.367937

 energy correction for charged system         0.000000 eV
 dipol+quadrupol energy correction           -0.000070 eV
 added-field ion interaction          0.309686 eV  (added to PSCEN)


 Broyden mixing:
  rms(total) = 0.10479E+01    rms(broyden)= 0.10478E+01
  rms(prec ) = 0.11325E+01
  weight for this iteration     100.00

[...]
   0.218E+02 0.253E+02 -.810E+03   -.216E+02 -.251E+02 0.811E+03   -.182E+00 -.174E+00 -.250E+00   -.538E-02 0.377E-02 -.566E-01
   0.278E+02 -.331E+00 -.772E+03   -.280E+02 0.344E+00 0.772E+03   0.180E+00 0.356E-03 0.202E+00   -.524E-02 -.132E-01 -.535E-01
   0.219E+02 -.254E+02 -.811E+03   -.217E+02 0.253E+02 0.811E+03   -.183E+00 0.185E+00 -.263E+00   -.490E-02 -.371E-02 -.537E-01
   0.116E+02 0.324E+00 -.808E+03   -.116E+02 -.335E+00 0.808E+03   -.352E-02 -.110E-02 0.297E-01   -.701E-02 0.123E-01 -.574E-01
   0.923E+01 0.355E+02 -.760E+03   -.926E+01 -.356E+02 0.760E+03   0.965E-02 0.142E+00 0.181E+00   0.179E-01 0.304E-02 -.574E-01
   0.134E+02 -.562E+00 -.656E+03   -.134E+02 0.572E+00 0.655E+03   0.905E-03 -.638E-03 0.166E+01   0.196E-01 -.100E-01 -.608E-01
   0.864E+01 -.353E+02 -.761E+03   -.868E+01 0.355E+02 0.761E+03   0.107E-01 -.141E+00 0.189E+00   0.214E-01 -.349E-02 -.585E-01
   0.480E+01 0.471E+00 -.795E+03   -.482E+01 -.484E+00 0.795E+03   -.346E-02 0.215E-02 0.525E-01   0.212E-01 0.103E-01 -.575E-01
   -.226E+02 0.340E+02 -.788E+03   0.224E+02 -.338E+02 0.789E+03   0.190E+00 -.167E+00 -.236E+00   0.288E-02 0.133E-02 -.598E-01
   -.291E+02 -.926E+00 -.734E+03   0.292E+02 0.938E+00 0.734E+03   -.161E+00 -.115E-02 0.238E+00   0.160E-02 -.936E-02 -.621E-01
   -.229E+02 -.338E+02 -.791E+03   0.227E+02 0.336E+02 0.791E+03   0.189E+00 0.158E+00 -.234E+00   0.163E-02 -.191E-02 -.626E-01
   -.117E+02 0.775E+00 -.802E+03   0.117E+02 -.787E+00 0.802E+03   -.145E-02 0.382E-02 0.358E-01   0.536E-02 0.920E-02 -.606E-01
   -.836E+01 0.185E+02 -.798E+03   0.839E+01 -.185E+02 0.798E+03   -.134E-01 0.290E-02 0.452E-01   -.154E-01 0.818E-03 -.600E-01
   -.123E+02 -.921E+00 -.782E+03   0.123E+02 0.937E+00 0.782E+03   -.262E-01 -.447E-02 0.789E-01   -.166E-01 -.112E-01 -.576E-01
   -.741E+01 -.180E+02 -.800E+03   0.746E+01 0.181E+02 0.800E+03   -.247E-01 -.939E-02 0.560E-01   -.189E-01 -.684E-03 -.581E-01
   -.479E+01 0.545E+00 -.809E+03   0.480E+01 -.560E+00 0.809E+03   0.806E-02 0.254E-02 0.355E-01   -.190E-01 0.111E-01 -.605E-01
   0.644E+01 0.227E+02 -.256E+04   -.644E+01 -.227E+02 0.255E+04   0.110E-01 -.328E-02 0.324E+01   -.124E-01 0.989E-02 -.217E-01
   0.189E+02 0.281E+02 -.254E+04   -.188E+02 -.281E+02 0.254E+04   -.272E-01 0.280E-01 0.328E+01   -.956E-02 -.423E-02 -.206E-01
   0.196E+02 -.295E+02 -.254E+04   -.196E+02 0.295E+02 0.254E+04   -.206E-01 -.235E-01 0.331E+01   -.104E-01 -.864E-02 -.158E-01
   0.716E+01 -.213E+02 -.256E+04   -.716E+01 0.213E+02 0.256E+04   0.100E-01 0.267E-02 0.326E+01   -.137E-01 0.276E-02 -.169E-01
   0.287E+02 0.465E+02 -.255E+04   -.288E+02 -.464E+02 0.254E+04   0.248E-01 -.939E-01 0.330E+01   0.798E-02 0.109E-01 -.188E-01
   0.164E+03 0.151E+03 -.244E+04   -.164E+03 -.151E+03 0.243E+04   -.534E-01 -.771E-01 0.222E+01   0.412E-02 -.841E-02 -.206E-01
   0.163E+03 -.152E+03 -.243E+04   -.163E+03 0.152E+03 0.243E+04   -.776E-01 0.108E+00 0.219E+01   0.321E-02 -.642E-02 -.169E-01
   0.279E+02 -.451E+02 -.255E+04   -.280E+02 0.450E+02 0.254E+04   0.326E-01 0.866E-01 0.331E+01   0.734E-02 0.363E-02 -.159E-01
   -.936E+01 0.589E+02 -.254E+04   0.939E+01 -.589E+02 0.253E+04   -.488E-01 -.106E+00 0.323E+01   0.138E-01 0.794E-02 -.245E-01
   -.100E+03 0.172E+03 -.235E+04   0.100E+03 -.172E+03 0.235E+04   -.147E+00 0.165E+00 0.212E+01   0.134E-01 -.937E-02 -.279E-01
   -.103E+03 -.177E+03 -.236E+04   0.103E+03 0.177E+03 0.236E+04   -.243E+00 -.674E-01 0.205E+01   0.143E-01 -.476E-02 -.269E-01
   -.106E+02 -.553E+02 -.254E+04   0.106E+02 0.552E+02 0.253E+04   -.280E-01 0.798E-01 0.329E+01   0.129E-01 0.562E-02 -.235E-01
   -.259E+02 0.353E+02 -.255E+04   0.259E+02 -.352E+02 0.254E+04   0.147E-01 -.543E-01 0.317E+01   -.854E-02 0.639E-02 -.276E-01
   -.767E+02 0.525E+02 -.248E+04   0.766E+02 -.524E+02 0.248E+04   0.123E+00 -.551E-01 0.284E+01   -.641E-02 -.732E-02 -.290E-01
   -.770E+02 -.572E+02 -.249E+04   0.767E+02 0.570E+02 0.249E+04   0.313E+00 0.196E+00 0.267E+01   -.683E-02 -.617E-02 -.266E-01
   -.247E+02 -.316E+02 -.255E+04   0.247E+02 0.316E+02 0.255E+04   -.881E-03 0.251E-01 0.324E+01   -.779E-02 0.688E-02 -.257E-01
   0.399E+02 -.106E+01 -.135E+04   -.399E+02 0.917E+00 0.133E+04   -.221E-01 0.143E+00 0.188E+02   0.651E-02 -.583E-02 -.397E-03
   0.130E+03 -.787E+01 -.202E+04   -.161E+03 0.969E+01 0.205E+04   0.313E+02 -.183E+01 -.313E+02   0.752E-02 -.359E-02 0.127E-01
   -.862E+02 -.190E+02 -.185E+04   0.655E+02 0.381E+02 0.188E+04   0.207E+02 -.191E+02 -.326E+02   0.886E-03 0.135E-03 0.415E-02
   -.404E+02 0.877E+02 -.296E+03   0.430E+02 -.954E+02 0.295E+03   -.262E+01 0.772E+01 0.557E+00   0.149E-03 -.432E-03 0.611E-03
   -.413E+02 0.187E+01 -.335E+03   0.472E+02 -.215E+01 0.337E+03   -.583E+01 0.279E+00 -.206E+01   0.811E-03 -.427E-03 0.132E-02
   -.517E+02 -.439E+02 -.251E+03   0.551E+02 0.476E+02 0.246E+03   -.331E+01 -.378E+01 0.587E+01   0.696E-04 -.414E-03 0.660E-03
 -----------------------------------------------------------------------------------------------
   -.400E+02 0.164E+02 0.477E+02   -.540E-12 -.355E-13 -.117E-11   0.400E+02 -.163E+02 -.451E+02   0.144E-01 -.149E-01 -.252E+01
 
 
 POSITION                                       TOTAL-FORCE (eV/Angst)
 -----------------------------------------------------------------------------------
      1.37275      1.37275     12.08797        -0.014382     -0.010508     -0.001913
      1.37275      4.11824     12.08797        -0.027833      0.000869      0.003405
      1.37275      6.86373     12.08797        -0.015031      0.006335     -0.002657
      1.37275      9.60922     12.08797        -0.016153      0.002370      0.006439
      4.11824      1.37275     12.08797        -0.000636     -0.025496      0.003499
      4.11824      4.11824     12.08797        -0.001900     -0.000855     -0.012564
      4.11824      6.86373     12.08797        -0.002467      0.024047      0.003500
      4.11824      9.60922     12.08797        -0.003077     -0.000122      0.017534
      6.86373      1.37275     12.08797         0.011740     -0.009971      0.001139
      6.86373      4.11824     12.08797         0.020810     -0.001154      0.010390
      6.86373      6.86373     12.08797         0.010902      0.009017     -0.000573
      6.86373      9.60922     12.08797         0.020608     -0.001355      0.004321
      9.60922      1.37275     12.08797         0.001930     -0.015602      0.007278
      9.60922      4.11824     12.08797         0.003217     -0.000877      0.018810
      9.60922      6.86373     12.08797         0.000535      0.014021      0.006065
      9.60922      9.60922     12.08797        -0.001521     -0.000074     -0.039538
      0.00046     10.98181     14.04404         0.000619     -0.000540     -0.000322
      0.00017      2.74172     14.04347         0.000137     -0.000513      0.000104
     10.98147      5.49475     14.04410         0.000348     -0.000293     -0.000431
      0.00028      8.23637     14.04305        -0.000051      0.000540     -0.000196
      2.74053     10.98169     14.04350         0.000158      0.000332     -0.000518
      2.73944      2.74076     14.03660         0.000651      0.001660      0.001040
      2.73876      5.49531     14.03721         0.001579     -0.000489      0.001256
      2.73979      8.23637     14.04296         0.000729      0.001038     -0.000565
      5.49485     10.98119     14.04202         0.000204      0.000229      0.000512
      5.49425      2.74042     14.03708        -0.000566      0.000342      0.000783
      5.49371      5.49554     14.03691         0.000386     -0.000635      0.001072
      5.49446      8.23647     14.04197         0.000429      0.000571     -0.000097
      8.23690     10.98117     14.04452        -0.000708     -0.000082     -0.000268
      8.23754      2.74064     14.04283        -0.000168      0.001260      0.000032
      8.23697      5.49482     14.04266         0.000856      0.000438      0.000966
      8.23648      8.23595     14.04452         0.000370      0.000954      0.000471
      1.38736      1.38998     16.01824        -0.000316      0.000503     -0.000903
      1.36271      4.11760     15.99276         0.001024      0.000020     -0.001524
      1.38529      6.84565     16.01864         0.001766      0.001101      0.000096
      1.37229      9.60897     15.99431         0.000216      0.000347     -0.000221
      4.11510      1.36187     15.98488        -0.000269      0.000805     -0.002836
      4.11216      4.11773     15.92925        -0.001249     -0.000465     -0.003064
      4.11394      6.87416     15.98393        -0.000154      0.000756     -0.000403
      4.11824      9.60907     15.98916        -0.000305      0.000002     -0.000597
      6.84990      1.38440     16.01293        -0.000444      0.000845     -0.001706
      6.87394      4.11755     15.98271         0.001087      0.001162     -0.001012
      6.84883      6.84931     16.01381         0.001945     -0.000527     -0.000326
      6.86315      9.60802     15.99487         0.000633      0.000894     -0.001221
      9.61048      1.37252     15.99517         0.000151      0.000760     -0.000131
      9.60934      4.11795     15.99089        -0.000170     -0.000079     -0.000496
      9.60845      6.86208     15.99566         0.000103      0.000824     -0.000330
      9.60799      9.60824     15.99208        -0.000933     -0.000806      0.000495
     10.98043     10.98019     17.94724        -0.000809     -0.000027      0.000742
     10.97470      2.74615     17.95945        -0.001069     -0.000406     -0.000681
     10.96987      5.48932     17.95923         0.000799      0.001037      0.000248
     10.97882      8.23752     17.94713         0.001004      0.000725      0.001171
      2.74692     10.97807     17.95408        -0.000872      0.000195      0.001011
      2.75582      2.75247     18.01053        -0.002470      0.000096      0.000421
      2.75298      5.48451     18.00813        -0.001894      0.001320      0.000063
      2.74421      8.24070     17.95325         0.001980     -0.000266      0.001993
      5.49157     10.97740     17.95545        -0.001229      0.000447     -0.001413
      5.48158      2.74729     17.97490        -0.001708      0.000413     -0.001631
      5.48030      5.48639     17.97644         0.000246      0.000639     -0.000770
      5.48832      8.24011     17.95440         0.001340      0.000225      0.000188
      8.23739     10.98165     17.95013        -0.001337      0.000473     -0.000114
      8.23756      2.74608     17.95377        -0.001097      0.000709      0.000519
      8.22981      5.48255     17.96207         0.000442     -0.000110      0.000944
      8.23620      8.23284     17.94919         0.001315     -0.000163      0.001388
      4.11399      4.12248     18.90966         0.002717     -0.001366      0.002024
      4.09621      4.12878     20.27926        -0.007309     -0.002245     -0.003805
      6.64324      4.01706     20.88211         0.009833     -0.015021     -0.004250
      6.96286      3.09597     20.79361        -0.005116      0.011766     -0.008098
      5.08533      4.07876     20.58044         0.009225     -0.002968     -0.002187
      7.07230      4.48034     20.11825         0.001213      0.002929     -0.002559
 -----------------------------------------------------------------------------------
    total drift:                                0.000368      0.000396      0.019563


--------------------------------------------------------------------------------------------------------



  FREE ENERGIE OF THE ION-ELECTRON SYSTEM (eV)
  ---------------------------------------------------
  free  energy   TOTEN  =      -369.14728645 eV

  energy  without entropy=     -369.03164785  energy(sigma->0) =     -369.10874025
 
 d Force = 0.1178744E-05[-0.149E-06, 0.251E-05]  d Energy = 0.5479774E-05-0.430E-05
 d Force = 0.2576097E+00[ 0.258E+00, 0.258E+00]  d Ewald  = 0.2576096E+00 0.642E-07


--------------------------------------------------------------------------------------------------------


    POTLOK:  cpu time    0.2160: real time    0.2096


--------------------------------------------------------------------------------------------------------




--------------------------------------------------------------------------------------------------------


  
 reached required accuracy - stopping structural energy minimisation
     LOOP+:  cpu time  248.0417: real time  129.8906
    4ORBIT:  cpu time    0.0000: real time    0.0000
 


 total charge     
 
# of ion       s       p       d       tot
------------------------------------------
    1        0.446   0.308   8.521   9.276
    2        0.445   0.308   8.522   9.275
    3        0.446   0.308   8.521   9.276
    4        0.444   0.308   8.521   9.273
    5        0.444   0.308   8.522   9.275
    6        0.445   0.308   8.521   9.274
    7        0.444   0.308   8.522   9.275
    8        0.445   0.306   8.523   9.274
    9        0.446   0.308   8.521   9.275
   10        0.444   0.308   8.522   9.274
   11        0.446   0.308   8.521   9.275
   12        0.445   0.308   8.521   9.273
   13        0.445   0.308   8.520   9.273
   14        0.445   0.306   8.523   9.274
   15        0.445   0.308   8.520   9.273
   16        0.442   0.308   8.524   9.274
   17        0.484   0.475   8.463   9.422
   18        0.485   0.478   8.459   9.423
   19        0.485   0.478   8.459   9.423
   20        0.484   0.475   8.464   9.422
   21        0.485   0.479   8.460   9.424
   22        0.488   0.483   8.458   9.429
   23        0.488   0.483   8.458   9.429
   24        0.485   0.478   8.460   9.424
   25        0.485   0.479   8.459   9.423
   26        0.488   0.482   8.457   9.427
   27        0.488   0.482   8.457   9.428
   28        0.485   0.479   8.460   9.424
   29        0.485   0.475   8.462   9.423
   30        0.486   0.479   8.459   9.423
   31        0.486   0.479   8.459   9.423
   32        0.485   0.475   8.462   9.423
   33        0.487   0.475   8.459   9.421
   34        0.483   0.471   8.467   9.420
   35        0.487   0.475   8.459   9.421
   36        0.485   0.476   8.457   9.418
   37        0.484   0.473   8.467   9.424
   38        0.472   0.456   8.492   9.421
   39        0.484   0.472   8.468   9.425
   40        0.486   0.479   8.460   9.425
   41        0.488   0.476   8.460   9.424
   42        0.484   0.473   8.468   9.426
   43        0.488   0.476   8.460   9.424
   44        0.485   0.476   8.457   9.419
   45        0.485   0.476   8.458   9.419
   46        0.486   0.477   8.462   9.425
   47        0.485   0.475   8.460   9.419
   48        0.488   0.479   8.456   9.424
   49        0.445   0.309   8.521   9.275
   50        0.445   0.307   8.524   9.276
   51        0.445   0.306   8.524   9.275
   52        0.445   0.309   8.521   9.275
   53        0.446   0.308   8.525   9.279
   54        0.445   0.391   8.510   9.346
   55        0.446   0.392   8.509   9.348
   56        0.446   0.308   8.525   9.279
   57        0.447   0.309   8.524   9.279
   58        0.452   0.398   8.514   9.363
   59        0.454   0.401   8.514   9.369
   60        0.446   0.308   8.524   9.278
   61        0.445   0.309   8.520   9.275
   62        0.453   0.316   8.526   9.296
   63        0.455   0.316   8.527   9.298
   64        0.444   0.308   8.521   9.273
   65        1.271   2.269   0.000   3.540
   66        1.604   3.499   0.000   5.103
   67        1.590   3.625   0.000   5.215
   68        0.611   0.111   0.000   0.722
   69        0.536   0.102   0.000   0.638
   70        0.592   0.109   0.000   0.701
--------------------------------------------------
tot         36.013  35.174 543.446 614.634
 


 magnetization (x)
 
# of ion       s       p       d       tot
------------------------------------------
    1       -0.001  -0.004   0.221   0.217
    2       -0.001  -0.003   0.224   0.220
    3       -0.001  -0.004   0.221   0.217
    4       -0.001  -0.003   0.224   0.219
    5       -0.001  -0.004   0.224   0.219
    6       -0.000  -0.004   0.229   0.225
    7       -0.001  -0.004   0.224   0.219
    8       -0.000  -0.004   0.209   0.205
    9       -0.001  -0.004   0.220   0.216
   10       -0.001  -0.003   0.223   0.219
   11       -0.001  -0.004   0.220   0.216
   12       -0.001  -0.003   0.224   0.219
   13       -0.001  -0.003   0.222   0.217
   14       -0.000  -0.004   0.208   0.204
   15       -0.001  -0.003   0.222   0.217
   16        0.003  -0.004   0.236   0.235
   17       -0.002  -0.006   0.314   0.306
   18       -0.002  -0.006   0.316   0.308
   19       -0.002  -0.006   0.315   0.307
   20       -0.002  -0.006   0.315   0.307
   21       -0.002  -0.006   0.317   0.308
   22       -0.002  -0.006   0.318   0.310
   23       -0.002  -0.006   0.317   0.309
   24       -0.002  -0.006   0.316   0.308
   25       -0.002  -0.006   0.317   0.309
   26       -0.002  -0.006   0.315   0.307
   27       -0.002  -0.006   0.316   0.308
   28       -0.002  -0.006   0.317   0.308
   29       -0.002  -0.006   0.313   0.305
   30       -0.002  -0.006   0.315   0.306
   31       -0.002  -0.006   0.316   0.308
   32       -0.002  -0.006   0.313   0.305
   33       -0.002  -0.006   0.273   0.265
   34       -0.002  -0.006   0.304   0.297
   35       -0.002  -0.006   0.272   0.263
   36       -0.002  -0.006   0.307   0.300
   37       -0.002  -0.006   0.303   0.296
   38       -0.001  -0.005   0.259   0.253
   39       -0.002  -0.006   0.302   0.295
   40       -0.002  -0.006   0.310   0.301
   41       -0.002  -0.006   0.268   0.260
   42       -0.002  -0.005   0.299   0.292
   43       -0.002  -0.006   0.268   0.260
   44       -0.002  -0.006   0.308   0.301
   45       -0.002  -0.006   0.306   0.299
   46       -0.002  -0.006   0.306   0.297
   47       -0.002  -0.006   0.306   0.298
   48       -0.001  -0.006   0.316   0.309
   49       -0.001  -0.003   0.216   0.212
   50       -0.000  -0.003   0.202   0.198
   51       -0.000  -0.003   0.201   0.197
   52       -0.001  -0.003   0.216   0.213
   53       -0.000  -0.003   0.203   0.199
   54       -0.002  -0.003   0.088   0.083
   55       -0.002  -0.003   0.088   0.083
   56       -0.000  -0.003   0.203   0.199
   57       -0.000  -0.003   0.200   0.197
   58       -0.002  -0.003   0.089   0.084
   59       -0.002  -0.003   0.087   0.082
   60       -0.000  -0.003   0.202   0.198
   61       -0.001  -0.003   0.210   0.206
   62       -0.001  -0.004   0.188   0.183
   63       -0.001  -0.004   0.182   0.178
   64       -0.001  -0.003   0.211   0.207
   65        0.001  -0.010   0.000  -0.009
   66       -0.000  -0.005   0.000  -0.005
   67       -0.000   0.000   0.000   0.000
   68       -0.000   0.000   0.000  -0.000
   69       -0.000  -0.000   0.000  -0.000
   70       -0.000  -0.000   0.000  -0.000
--------------------------------------------------
tot         -0.077  -0.317  16.091  15.697
 

 total amount of memory used by VASP MPI-rank0   269680. kBytes
=======================================================================

   base      :      30000. kBytes
   nonlr-proj:      51596. kBytes
   fftplans  :       7679. kBytes
   grid      :      92335. kBytes
   one-center:       2177. kBytes
   wavefun   :      85893. kBytes
 
  
  
 General timing and accounting informations for this job:
 ========================================================
  
                  Total CPU time used (sec):     4757.348
                            User time (sec):     4594.442
                          System time (sec):      162.906
                         Elapsed time (sec):     2526.507
  
                   Maximum memory used (kb):      832820.
                   Average memory used (kb):           0.
  
                          Minor page faults:       664047
                          Major page faults:           20
                 Voluntary context switches:        20757
