 vasp.5.4.4.18Apr17-6-g9f103f2a35 (build Jun 11 2020 13:42:08) complex          
  
 executed on             LinuxIFC date 2022.03.15  11:19:19
 running on   48 total cores
 each image running on   12 cores
 distrk:  each k-point on   12 cores,    1 groups
 distr:  one band on NCORES_PER_BAND=  12 cores,    1 groups


--------------------------------------------------------------------------------------------------------


 INCAR:
 POTCAR:    PAW_PBE H 15Jun2001                   
 POTCAR:    PAW_PBE N 08Apr2002                   
 POTCAR:    PAW_PBE O 08Apr2002                   
 POTCAR:    PAW_PBE Pd 04Jan2005                  

 ----------------------------------------------------------------------------- 
|                                                                             |
|           W    W    AA    RRRRR   N    N  II  N    N   GGGG   !!!           |
|           W    W   A  A   R    R  NN   N  II  NN   N  G    G  !!!           |
|           W    W  A    A  R    R  N N  N  II  N N  N  G       !!!           |
|           W WW W  AAAAAA  RRRRR   N  N N  II  N  N N  G  GGG   !            |
|           WW  WW  A    A  R   R   N   NN  II  N   NN  G    G                |
|           W    W  A    A  R    R  N    N  II  N    N   GGGG   !!!           |
|                                                                             |
|      For optimal performance we recommend to set                            |
|        NCORE= 4 - approx SQRT( number of cores)                             |
|      NCORE specifies how many cores store one orbital (NPAR=cpu/NCORE).     |
|      This setting can  greatly improve the performance of VASP for DFT.     |
|      The default,   NCORE=1            might be grossly inefficient         |
|      on modern multi-core architectures or massively parallel machines.     |
|      Do your own testing !!!!                                               |
|      Unfortunately you need to use the default for GW and RPA calculations. |
|      (for HF NCORE is supported but not extensively tested yet)             |
|                                                                             |
 ----------------------------------------------------------------------------- 

 POTCAR:    PAW_PBE H 15Jun2001                   
   VRHFIN =H: ultrasoft test                                                    
   LEXCH  = PE                                                                  
   EATOM  =    12.4884 eV,    0.9179 Ry                                         
                                                                                
   TITEL  = PAW_PBE H 15Jun2001                                                 
   LULTRA =        F    use ultrasoft PP ?                                      
   IUNSCR =        0    unscreen: 0-lin 1-nonlin 2-no                           
   RPACOR =    0.000    partial core radius                                     
   POMASS =    1.000; ZVAL   =    1.000    mass and valenz                      
   RCORE  =    1.100    outmost cutoff radius                                   
   RWIGS  =    0.700; RWIGS  =    0.370    wigner-seitz radius (au A)           
   ENMAX  =  250.000; ENMIN  =  200.000 eV                                      
   RCLOC  =    0.701    cutoff for local pot                                    
   LCOR   =        T    correct aug charges                                     
   LPAW   =        T    paw PP                                                  
   EAUG   =  400.000                                                            
   RMAX   =    1.123    core radius for proj-oper                               
   RAUG   =    1.200    factor for augmentation sphere                          
   RDEP   =    1.112    radius for radial grids                                 
   RDEPT  =    0.926    core radius for aug-charge                              
                                                                                
   Atomic configuration                                                         
    2 entries                                                                   
     n  l   j            E        occ.                                          
     1  0  0.50        -6.4927   1.0000                                         
     2  1  0.50        -3.4015   0.0000                                         
   Description                                                                  
     l       E           TYP  RCUT    TYP  RCUT                                 
     0     -6.4927494     23  1.100                                             
     0      6.8029130     23  1.100                                             
     1     -4.0817478     23  1.100                                             
  local pseudopotential read in
  atomic valenz-charges read in
  non local Contribution for L=           0  read in
    real space projection operators read in
  non local Contribution for L=           0  read in
    real space projection operators read in
  non local Contribution for L=           1  read in
    real space projection operators read in
    PAW grid and wavefunctions read in
 
   number of l-projection  operators is LMAX  =           3
   number of lm-projection operators is LMMAX =           5
 
 POTCAR:    PAW_PBE N 08Apr2002                   
   VRHFIN =N: s2p3                                                              
   LEXCH  = PE                                                                  
   EATOM  =   264.5486 eV,   19.4438 Ry                                         
                                                                                
   TITEL  = PAW_PBE N 08Apr2002                                                 
   LULTRA =        F    use ultrasoft PP ?                                      
   IUNSCR =        1    unscreen: 0-lin 1-nonlin 2-no                           
   RPACOR =    1.200    partial core radius                                     
   POMASS =   14.001; ZVAL   =    5.000    mass and valenz                      
   RCORE  =    1.500    outmost cutoff radius                                   
   RWIGS  =    1.400; RWIGS  =    0.741    wigner-seitz radius (au A)           
   ENMAX  =  400.000; ENMIN  =  300.000 eV                                      
   ICORE  =        2    local potential                                         
   LCOR   =        T    correct aug charges                                     
   LPAW   =        T    paw PP                                                  
   EAUG   =  627.112                                                            
   DEXC   =    0.000                                                            
   RMAX   =    1.529    core radius for proj-oper                               
   RAUG   =    1.300    factor for augmentation sphere                          
   RDEP   =    1.514    radius for radial grids                                 
   RDEPT  =    1.338    core radius for aug-charge                              
                                                                                
   Atomic configuration                                                         
    4 entries                                                                   
     n  l   j            E        occ.                                          
     1  0  0.50      -384.7179   2.0000                                         
     2  0  0.50       -18.5828   2.0000                                         
     2  1  0.50        -7.0898   3.0000                                         
     3  2  1.50        -6.8029   0.0000                                         
   Description                                                                  
     l       E           TYP  RCUT    TYP  RCUT                                 
     0    -18.5828119     23  1.200                                             
     0    -13.5018863     23  1.200                                             
     1     -7.0897853     23  1.500                                             
     1      9.5240782     23  1.500                                             
     2     -6.8029130      7  1.500                                             
  local pseudopotential read in
  partial core-charges read in
  partial kinetic energy density read in
  atomic valenz-charges read in
  non local Contribution for L=           0  read in
    real space projection operators read in
  non local Contribution for L=           0  read in
    real space projection operators read in
  non local Contribution for L=           1  read in
    real space projection operators read in
  non local Contribution for L=           1  read in
    real space projection operators read in
    PAW grid and wavefunctions read in
 
   number of l-projection  operators is LMAX  =           4
   number of lm-projection operators is LMMAX =           8
 
 POTCAR:    PAW_PBE O 08Apr2002                   
   VRHFIN =O: s2p4                                                              
   LEXCH  = PE                                                                  
   EATOM  =   432.3788 eV,   31.7789 Ry                                         
                                                                                
   TITEL  = PAW_PBE O 08Apr2002                                                 
   LULTRA =        F    use ultrasoft PP ?                                      
   IUNSCR =        1    unscreen: 0-lin 1-nonlin 2-no                           
   RPACOR =    1.200    partial core radius                                     
   POMASS =   16.000; ZVAL   =    6.000    mass and valenz                      
   RCORE  =    1.520    outmost cutoff radius                                   
   RWIGS  =    1.550; RWIGS  =    0.820    wigner-seitz radius (au A)           
   ENMAX  =  400.000; ENMIN  =  300.000 eV                                      
   ICORE  =        2    local potential                                         
   LCOR   =        T    correct aug charges                                     
   LPAW   =        T    paw PP                                                  
   EAUG   =  605.392                                                            
   DEXC   =    0.000                                                            
   RMAX   =    1.553    core radius for proj-oper                               
   RAUG   =    1.300    factor for augmentation sphere                          
   RDEP   =    1.550    radius for radial grids                                 
   RDEPT  =    1.329    core radius for aug-charge                              
                                                                                
   Atomic configuration                                                         
    4 entries                                                                   
     n  l   j            E        occ.                                          
     1  0  0.50      -514.6923   2.0000                                         
     2  0  0.50       -23.9615   2.0000                                         
     2  1  0.50        -9.0305   4.0000                                         
     3  2  1.50        -9.5241   0.0000                                         
   Description                                                                  
     l       E           TYP  RCUT    TYP  RCUT                                 
     0    -23.9615318     23  1.200                                             
     0     -9.5240782     23  1.200                                             
     1     -9.0304911     23  1.520                                             
     1      8.1634956     23  1.520                                             
     2     -9.5240782      7  1.500                                             
  local pseudopotential read in
  partial core-charges read in
  partial kinetic energy density read in
  kinetic energy density of atom read in
  atomic valenz-charges read in
  non local Contribution for L=           0  read in
    real space projection operators read in
  non local Contribution for L=           0  read in
    real space projection operators read in
  non local Contribution for L=           1  read in
    real space projection operators read in
  non local Contribution for L=           1  read in
    real space projection operators read in
    PAW grid and wavefunctions read in
 
   number of l-projection  operators is LMAX  =           4
   number of lm-projection operators is LMMAX =           8
 
 POTCAR:    PAW_PBE Pd 04Jan2005                  
   VRHFIN =Pd : s1 d9                                                           
   LEXCH  = PE                                                                  
   EATOM  =   809.7530 eV,   59.5152 Ry                                         
                                                                                
   TITEL  = PAW_PBE Pd 04Jan2005                                                
   LULTRA =        F    use ultrasoft PP ?                                      
   IUNSCR =        1    unscreen: 0-lin 1-nonlin 2-no                           
   RPACOR =    2.000    partial core radius                                     
   POMASS =  106.420; ZVAL   =   10.000    mass and valenz                      
   RCORE  =    2.600    outmost cutoff radius                                   
   RWIGS  =    2.710; RWIGS  =    1.434    wigner-seitz radius (au A)           
   ENMAX  =  250.925; ENMIN  =  188.194 eV                                      
   ICORE  =        3    local potential                                         
   LCOR   =        T    correct aug charges                                     
   LPAW   =        T    paw PP                                                  
   EAUG   =  416.230                                                            
   DEXC   =    0.000                                                            
   RMAX   =    2.653    core radius for proj-oper                               
   RAUG   =    1.300    factor for augmentation sphere                          
   RDEP   =    2.734    radius for radial grids                                 
   RDEPT  =    2.103    core radius for aug-charge                              
                                                                                
   Atomic configuration                                                         
   12 entries                                                                   
     n  l   j            E        occ.                                          
     1  0  0.50    -24164.6631   2.0000                                         
     2  0  0.50     -3530.9218   2.0000                                         
     2  1  1.50     -3165.6822   6.0000                                         
     3  0  0.50      -639.4577   2.0000                                         
     3  1  1.50      -519.4532   6.0000                                         
     3  2  2.50      -328.9757  10.0000                                         
     4  0  0.50       -88.7014   2.0000                                         
     4  1  1.50       -54.4540   6.0000                                         
     4  2  2.50        -6.6878   9.0000                                         
     5  0  0.50        -4.3543   1.0000                                         
     5  1  0.50        -1.3606   0.0000                                         
     4  3  2.50        -1.3606   0.0000                                         
   Description                                                                  
     l       E           TYP  RCUT    TYP  RCUT                                 
     2     -6.6878251     23  2.400                                             
     2     -8.0484077     23  2.400                                             
     0     -4.3542939     23  2.400                                             
     0      4.3406793     23  2.400                                             
     1     -4.0817478     23  2.600                                             
     1     15.8380318     23  2.600                                             
     3     -4.0817478     23  2.400                                             
  local pseudopotential read in
  partial core-charges read in
  partial kinetic energy density read in
  atomic valenz-charges read in
  non local Contribution for L=           2  read in
    real space projection operators read in
  non local Contribution for L=           2  read in
    real space projection operators read in
  non local Contribution for L=           0  read in
    real space projection operators read in
  non local Contribution for L=           0  read in
    real space projection operators read in
  non local Contribution for L=           1  read in
    real space projection operators read in
  non local Contribution for L=           1  read in
    real space projection operators read in
    PAW grid and wavefunctions read in
 
   number of l-projection  operators is LMAX  =           6
   number of lm-projection operators is LMMAX =          18
 
 Optimization of the real space projectors (new method)

 maximal supplied QI-value         = 34.20
 optimisation between [QCUT,QGAM] = [  9.92, 20.18] = [ 27.55,114.04] Ry 
 Optimized for a Real-space Cutoff    1.34 Angstroem

   l    n(q)    QCUT    max X(q) W(low)/X(q) W(high)/X(q)  e(spline) 
   0      8     9.919    19.460    0.16E-03    0.20E-03    0.36E-06
   0      8     9.919    12.209    0.16E-03    0.20E-03    0.35E-06
   1      8     9.919     4.655    0.19E-03    0.46E-03    0.40E-06
 Optimization of the real space projectors (new method)

 maximal supplied QI-value         = 25.13
 optimisation between [QCUT,QGAM] = [ 10.05, 20.36] = [ 28.30,116.06] Ry 
 Optimized for a Real-space Cutoff    1.70 Angstroem

   l    n(q)    QCUT    max X(q) W(low)/X(q) W(high)/X(q)  e(spline) 
   0     10    10.053    79.467    0.61E-04    0.98E-04    0.61E-06
   0     10    10.053    66.151    0.60E-04    0.98E-04    0.61E-06
   1     10    10.053     8.350    0.17E-03    0.71E-03    0.45E-05
   1     10    10.053     5.531    0.18E-03    0.77E-03    0.49E-05
 Optimization of the real space projectors (new method)

 maximal supplied QI-value         = 24.76
 optimisation between [QCUT,QGAM] = [ 10.15, 20.30] = [ 28.85,115.39] Ry 
 Optimized for a Real-space Cutoff    1.51 Angstroem

   l    n(q)    QCUT    max X(q) W(low)/X(q) W(high)/X(q)  e(spline) 
   0      9    10.150    20.381    0.17E-03    0.18E-03    0.41E-06
   0      9    10.150    15.268    0.18E-03    0.20E-03    0.43E-06
   1      9    10.150     5.964    0.16E-03    0.20E-03    0.36E-06
   1      9    10.150     5.382    0.13E-03    0.16E-03    0.33E-06
 Optimization of the real space projectors (new method)

 maximal supplied QI-value         = 14.36
 optimisation between [QCUT,QGAM] = [ 10.20, 20.39] = [ 29.12,116.47] Ry 
 Optimized for a Real-space Cutoff    1.55 Angstroem

   l    n(q)    QCUT    max X(q) W(low)/X(q) W(high)/X(q)  e(spline) 
   2      9    10.197    59.108    0.12E-03    0.40E-04    0.11E-06
   2      9    10.197    58.101    0.12E-03    0.39E-04    0.12E-06
   0      9    10.197   102.235    0.41E-04    0.86E-05    0.83E-07
   0      9    10.197    58.388    0.37E-04    0.79E-05    0.78E-07
   1      9    10.197    22.191    0.25E-03    0.13E-03    0.84E-07
   1      9    10.197    15.590    0.21E-03    0.11E-03    0.74E-07
  PAW_PBE H 15Jun2001                   :
 energy of atom  1       EATOM=  -12.4884
 kinetic energy error for atom=    0.0098 (will be added to EATOM!!)
  PAW_PBE N 08Apr2002                   :
 energy of atom  2       EATOM= -264.5486
 kinetic energy error for atom=    0.0736 (will be added to EATOM!!)
  PAW_PBE O 08Apr2002                   :
 energy of atom  3       EATOM= -432.3788
 kinetic energy error for atom=    0.1156 (will be added to EATOM!!)
  PAW_PBE Pd 04Jan2005                  :
 energy of atom  4       EATOM= -809.7530
 kinetic energy error for atom=    0.0091 (will be added to EATOM!!)
 
 
 POSCAR: H N O Pd                                
  positions in direct lattice
  velocities in cartesian coordinates
 exchange correlation table for  LEXCH =        8
   RHO(1)=    0.500       N(1)  =     2000
   RHO(2)=  100.500       N(2)  =     4000

 VTST: version 3.1, (03/28/14)

 CHAIN: initializing optimizer
 
 OPT: Using VASP QUASI-newton optimizer
 CHAIN: Read ICHAIN            0
 CHAIN: Running the NEB
 NEB:          SPRING     -5.000000
 NEB:          LCLIMB      T
 NEB:     LTANGENTOLD      F
 NEB:           LDNEB      F
 NEB:        LDNEBORG      F
 NEB:        LNEBCELL      F
 NEB:          EFIRST   -372.494529
 NEB:           ELAST   -373.877943
 
 POSCAR: H N O Pd                                
  positions in direct lattice
  No initial velocities read in
 
 POSCAR: H N O Pd                                
  positions in direct lattice
  No initial velocities read in
 


--------------------------------------------------------------------------------------------------------


 ion  position               nearest neighbor table
   1  0.460  0.325  0.685-   6 0.98
   2  0.116  0.379  0.686-   7 0.99
   3  0.251  0.329  0.691-   7 1.02
   4  0.158  0.264  0.649-   7 1.29  61 1.82
   5  0.385  0.376  0.628-   6 1.50  66 2.07  65 2.09  62 2.14  61 2.21
   6  0.389  0.376  0.678-   1 0.98   5 1.50
   7  0.162  0.303  0.690-   2 0.99   3 1.02   4 1.29
   8  0.125  0.125  0.402-  20 2.75  11 2.75  12 2.75   9 2.75  29 2.75  25 2.75  28 2.76  24 2.76

   9  0.125  0.375  0.402-  21 2.75  10 2.75  13 2.75   8 2.75  26 2.75  30 2.76  25 2.76  29 2.76

  10  0.125  0.625  0.402-  11 2.74  22 2.75   9 2.75  14 2.75  26 2.75  27 2.75  30 2.75  31 2.76

  11  0.125  0.875  0.402-  10 2.74  23 2.75   8 2.75  15 2.75  28 2.75  24 2.76  27 2.76  31 2.76

  12  0.375  0.125  0.402-  15 2.75  16 2.75   8 2.75  13 2.75  29 2.75  33 2.76  28 2.76  32 2.76

  13  0.375  0.375  0.402-  14 2.75   9 2.75  17 2.75  12 2.75  30 2.75  29 2.76  34 2.76  33 2.76

  14  0.375  0.625  0.402-  15 2.74  13 2.75  10 2.75  18 2.75  30 2.75  31 2.75  34 2.75  35 2.76

  15  0.375  0.875  0.402-  14 2.74  12 2.75  19 2.75  11 2.75  28 2.75  32 2.76  31 2.76  35 2.76

  16  0.625  0.125  0.402-  33 2.74  20 2.75  19 2.75  12 2.75  17 2.75  32 2.75  36 2.76  37 2.76

  17  0.625  0.375  0.402-  34 2.74  21 2.75  18 2.75  13 2.75  16 2.75  33 2.75  38 2.76  37 2.77

  18  0.625  0.625  0.402-  34 2.74  19 2.74  22 2.75  17 2.75  14 2.75  35 2.75  38 2.76  39 2.76

  19  0.625  0.875  0.402-  18 2.74  32 2.74  23 2.75  16 2.75  15 2.75  35 2.75  36 2.76  39 2.76

  20  0.875  0.125  0.402-  16 2.75   8 2.75  23 2.75  21 2.75  37 2.75  36 2.75  25 2.76  24 2.76

  21  0.875  0.375  0.402-  17 2.75   9 2.75  22 2.75  20 2.75  38 2.75  37 2.76  26 2.76  25 2.76

  22  0.875  0.625  0.403-  23 2.74  18 2.75  10 2.75  21 2.75  38 2.75  39 2.75  27 2.76  26 2.76

  23  0.875  0.875  0.403-  22 2.74  19 2.75  11 2.75  20 2.75  39 2.75  36 2.75  24 2.76  27 2.77

  24  0.000  1.000  0.468-  28 2.74  25 2.74  36 2.74  27 2.75  55 2.75  52 2.75  11 2.76  43 2.76
                             8 2.76  23 2.76  20 2.76  40 2.78
  25  0.001  0.250  0.468-  29 2.74  37 2.74  24 2.74  53 2.75   8 2.75  26 2.75  52 2.75  41 2.75
                             9 2.76  20 2.76  21 2.76  40 2.77
  26  0.001  0.500  0.468-  30 2.74  27 2.74  38 2.74  54 2.75  53 2.75  25 2.75  10 2.75  41 2.75
                             9 2.75  22 2.76  21 2.76  42 2.77
  27  0.001  0.750  0.468-  31 2.74  26 2.74  39 2.74  24 2.75  54 2.75  55 2.75  43 2.75  10 2.75
                            11 2.76  22 2.76  23 2.77  42 2.79
  28  0.250  1.000  0.468-  44 2.74  24 2.74  29 2.74  31 2.75  15 2.75  11 2.75  43 2.75  47 2.75
                            32 2.76  12 2.76   8 2.76  40 2.76
  29  0.250  0.249  0.468-  45 2.72  25 2.74  28 2.74  12 2.75   8 2.75  30 2.75  41 2.76  44 2.76
                            13 2.76  40 2.76  33 2.76   9 2.76
  30  0.250  0.500  0.468-  45 2.71  31 2.74  26 2.74  14 2.75  13 2.75  42 2.75  29 2.75  10 2.75
                             9 2.76  34 2.76  41 2.76  46 2.76
  31  0.250  0.750  0.468-  30 2.74  27 2.74  28 2.75  43 2.75  46 2.75  47 2.75  14 2.75  35 2.75
                            10 2.76  15 2.76  11 2.76  42 2.77
  32  0.501  1.000  0.468-  44 2.74  36 2.74  33 2.74  35 2.74  19 2.74  16 2.75  51 2.75  47 2.76
                            28 2.76  15 2.76  12 2.76  48 2.78
  33  0.501  0.249  0.467-  45 2.71  32 2.74  16 2.74  37 2.74  17 2.75  12 2.76  44 2.76  34 2.76
                            29 2.76  48 2.76  13 2.76  49 2.76
  34  0.501  0.500  0.467-  45 2.71  18 2.74  35 2.74  38 2.74  17 2.74  14 2.75  46 2.76  30 2.76
                            33 2.76  13 2.76  50 2.76  49 2.76
  35  0.501  0.750  0.468-  34 2.74  39 2.74  32 2.74  46 2.74  47 2.75  18 2.75  51 2.75  19 2.75
                            31 2.75  14 2.76  15 2.76  50 2.77
  36  0.751  1.000  0.468-  37 2.74  32 2.74  24 2.74  39 2.74  51 2.75  23 2.75  20 2.75  55 2.76
                            19 2.76  16 2.76  52 2.76  48 2.78
  37  0.751  0.249  0.468-  49 2.73  36 2.74  25 2.74  33 2.74  20 2.75  21 2.76  38 2.76  52 2.76
                            16 2.76  53 2.76  48 2.77  17 2.77
  38  0.751  0.500  0.468-  49 2.73  39 2.74  26 2.74  34 2.74  22 2.75  21 2.75  37 2.76  54 2.76
                            18 2.76  50 2.76  17 2.76  53 2.77
  39  0.751  0.750  0.468-  38 2.74  35 2.74  27 2.74  36 2.74  22 2.75  23 2.75  55 2.75  51 2.75
                            18 2.76  19 2.76  54 2.76  50 2.78
  40  0.127  0.125  0.533-  44 2.73  41 2.74  52 2.75  61 2.75  60 2.75  43 2.76  29 2.76  56 2.76
                            57 2.76  28 2.76  25 2.77  24 2.78
  41  0.126  0.375  0.533-  53 2.73  42 2.73  40 2.74  25 2.75  26 2.75  45 2.76  29 2.76  58 2.76
                            30 2.76  57 2.77  61 2.79  62 2.81
  42  0.128  0.623  0.534-  41 2.73  46 2.73  63 2.74  58 2.74  30 2.75  59 2.76  54 2.76  43 2.76
                            31 2.77  26 2.77  62 2.78  27 2.79
  43  0.126  0.874  0.533-  47 2.74  55 2.75  31 2.75  27 2.75  28 2.75  59 2.76  40 2.76  24 2.76
                            60 2.76  56 2.76  42 2.76  63 2.76
  44  0.376  0.123  0.532-  47 2.73  40 2.73  48 2.74  32 2.74  28 2.74  29 2.76  33 2.76  45 2.76
                            64 2.77  60 2.77  65 2.79  61 2.79
  45  0.377  0.375  0.530-  33 2.71  30 2.71  34 2.71  29 2.72  46 2.75  41 2.76  44 2.76  49 2.77
                            65 2.82  62 2.83  61 2.85  66 2.85
  46  0.377  0.625  0.533-  42 2.73  50 2.73  47 2.74  35 2.74  31 2.75  45 2.75  34 2.76  30 2.76
                            63 2.76  67 2.76  62 2.80  66 2.81
  47  0.376  0.875  0.533-  44 2.73  46 2.74  43 2.74  51 2.75  35 2.75  31 2.75  28 2.75  32 2.76
                            60 2.76  63 2.76  67 2.76  64 2.76
  48  0.625  0.126  0.534-  65 2.73  49 2.74  44 2.74  64 2.75  68 2.76  51 2.76  69 2.76  33 2.76
                            52 2.76  37 2.77  32 2.78  36 2.78
  49  0.628  0.375  0.532-  50 2.73  38 2.73  37 2.73  53 2.74  48 2.74  33 2.76  34 2.76  45 2.77
                            70 2.77  69 2.77  65 2.79  66 2.79
  50  0.625  0.624  0.533-  49 2.73  46 2.73  66 2.75  67 2.75  71 2.75  51 2.76  34 2.76  54 2.76
                            70 2.76  38 2.76  35 2.77  39 2.78
  51  0.626  0.875  0.533-  47 2.75  55 2.75  35 2.75  36 2.75  39 2.75  32 2.75  67 2.76  48 2.76
                            64 2.76  71 2.76  68 2.76  50 2.76
  52  0.876  0.125  0.533-  53 2.74  69 2.75  55 2.75  40 2.75  24 2.75  25 2.75  68 2.75  56 2.76
                            37 2.76  48 2.76  36 2.76  57 2.79
  53  0.877  0.374  0.533-  41 2.73  49 2.74  52 2.74  54 2.75  25 2.75  26 2.75  69 2.75  70 2.75
                            37 2.76  38 2.77  58 2.77  57 2.79
  54  0.877  0.624  0.533-  53 2.75  26 2.75  70 2.75  27 2.75  55 2.75  59 2.75  71 2.75  38 2.76
                            50 2.76  42 2.76  39 2.76  58 2.78
  55  0.876  0.875  0.533-  43 2.75  52 2.75  51 2.75  24 2.75  27 2.75  54 2.75  71 2.75  39 2.75
                            68 2.75  56 2.75  36 2.76  59 2.76
  56  0.001  0.999  0.598-  68 2.74  59 2.74  60 2.75  57 2.75  55 2.75  52 2.76  40 2.76  43 2.76

  57  0.004  0.250  0.599-  61 2.72  58 2.74  69 2.75  56 2.75  40 2.76  41 2.77  53 2.79  52 2.79

  58  0.003  0.499  0.599-  70 2.74  57 2.74  42 2.74  59 2.75  41 2.76  62 2.76  53 2.77  54 2.78

  59  0.001  0.749  0.598-  56 2.74  71 2.74  58 2.75  63 2.75  54 2.75  42 2.76  43 2.76  55 2.76

  60  0.251  0.998  0.598-  63 2.73  61 2.74  64 2.74  56 2.75  40 2.75  43 2.76  47 2.76  44 2.77

  61  0.251  0.248  0.599-   4 1.82   5 2.21  57 2.72  60 2.74  62 2.75  65 2.75  40 2.75  44 2.79
                            41 2.79  45 2.85
  62  0.254  0.498  0.600-   5 2.14  66 2.74  61 2.75  63 2.76  58 2.76  42 2.78  46 2.80  41 2.81
                            45 2.83
  63  0.252  0.749  0.598-  60 2.73  42 2.74  67 2.74  59 2.75  62 2.76  46 2.76  47 2.76  43 2.76

  64  0.501  0.999  0.598-  67 2.73  60 2.74  65 2.75  48 2.75  68 2.75  51 2.76  47 2.76  44 2.77

  65  0.502  0.249  0.599-   5 2.09  48 2.73  64 2.75  66 2.75  61 2.75  69 2.76  49 2.79  44 2.79
                            45 2.82
  66  0.504  0.500  0.600-   5 2.07  62 2.74  70 2.75  67 2.75  50 2.75  65 2.75  49 2.79  46 2.81
                            45 2.85
  67  0.501  0.750  0.598-  64 2.73  63 2.74  71 2.75  66 2.75  50 2.75  51 2.76  46 2.76  47 2.76

  68  0.751  1.000  0.598-  56 2.74  71 2.74  69 2.75  64 2.75  55 2.75  52 2.75  48 2.76  51 2.76

  69  0.753  0.250  0.598-  70 2.74  52 2.75  57 2.75  68 2.75  53 2.75  48 2.76  65 2.76  49 2.77

  70  0.754  0.500  0.598-  58 2.74  69 2.74  66 2.75  54 2.75  71 2.75  53 2.75  50 2.76  49 2.77

  71  0.751  0.750  0.598-  68 2.74  59 2.74  67 2.75  70 2.75  55 2.75  50 2.75  54 2.75  51 2.76

 
  LATTYP: Found a simple tetragonal cell.
 ALAT       =    10.9820000000
 C/A-ratio  =     2.7317428519
  
  Lattice vectors:
  
 A1 = (  10.9820000000,   0.0000000000,   0.0000000000)
 A2 = (   0.0000000000,  10.9820000000,   0.0000000000)
 A3 = (   0.0000000000,   0.0000000000,  30.0000000000)


Analysis of symmetry for initial positions (statically):
=====================================================================
 Subroutine PRICEL returns:
 Original cell was already a primitive cell.
 

 Routine SETGRP: Setting up the symmetry group for a 
 simple tetragonal supercell.


 Subroutine GETGRP returns: Found  1 space group operations
 (whereof  1 operations were pure point group operations)
 out of a pool of 16 trial point group operations.


The static configuration has the point symmetry C_1 .


Analysis of symmetry for dynamics (positions and initial velocities):
=====================================================================
 Subroutine PRICEL returns:
 Original cell was already a primitive cell.
 

 Routine SETGRP: Setting up the symmetry group for a 
 simple tetragonal supercell.


 Subroutine GETGRP returns: Found  1 space group operations
 (whereof  1 operations were pure point group operations)
 out of a pool of 16 trial point group operations.


The dynamic configuration has the point symmetry C_1 .


Analysis of constrained symmetry for selective dynamics:
=====================================================================
 Subroutine PRICEL returns:
 Original cell was already a primitive cell.
 

 Routine SETGRP: Setting up the symmetry group for a 
 simple tetragonal supercell.


 Subroutine GETGRP returns: Found  1 space group operations
 (whereof  1 operations were pure point group operations)
 out of a pool of 16 trial point group operations.


The constrained configuration has the point symmetry C_1 .


Analysis of structural, dynamic, and magnetic symmetry:
=====================================================================
 Subroutine PRICEL returns:
 Original cell was already a primitive cell.
 

 Routine SETGRP: Setting up the symmetry group for a 
 simple tetragonal supercell.


 Subroutine GETGRP returns: Found  1 space group operations
 (whereof  1 operations were pure point group operations)
 out of a pool of 16 trial point group operations.


The magnetic configuration has the point symmetry C_1 .


 Subroutine INISYM returns: Found  1 space group operations
 (whereof  1 operations are pure point group operations),
 and found     1 'primitive' translations

 
 
 KPOINTS: K-Point Grid                            

Automatic generation of k-mesh.
Space group operators:
 irot       det(A)        alpha          n_x          n_y          n_z        tau_x        tau_y        tau_z
    1     1.000000     0.000001     1.000000     0.000000     0.000000     0.000000     0.000000     0.000000
 
 Subroutine IBZKPT returns following result:
 ===========================================
 
 Found      8 irreducible k-points:
 
 Following reciprocal coordinates:
            Coordinates               Weight
  0.125000  0.125000  0.000000      2.000000
  0.375000  0.125000  0.000000      2.000000
 -0.375000  0.125000  0.000000      2.000000
 -0.125000  0.125000  0.000000      2.000000
  0.125000  0.375000  0.000000      2.000000
  0.375000  0.375000  0.000000      2.000000
 -0.375000  0.375000  0.000000      2.000000
 -0.125000  0.375000  0.000000      2.000000
 
 Following cartesian coordinates:
            Coordinates               Weight
  0.011382  0.011382  0.000000      2.000000
  0.034147  0.011382  0.000000      2.000000
 -0.034147  0.011382  0.000000      2.000000
 -0.011382  0.011382  0.000000      2.000000
  0.011382  0.034147  0.000000      2.000000
  0.034147  0.034147  0.000000      2.000000
 -0.034147  0.034147  0.000000      2.000000
 -0.011382  0.034147  0.000000      2.000000
 


--------------------------------------------------------------------------------------------------------




 Dimension of arrays:
   k-points           NKPTS =      8   k-points in BZ     NKDIM =      8   number of bands    NBANDS=    432
   number of dos      NEDOS =   1200   number of ions     NIONS =     71
   non local maximal  LDIM  =      6   non local SUM 2l+1 LMDIM =     18
   total plane-waves  NPLWV = ******
   max r-space proj   IRMAX =   5807   max aug-charges    IRDMAX=  13820
   dimension x,y,z NGX =    72 NGY =   72 NGZ =  196
   dimension x,y,z NGXF=   144 NGYF=  144 NGZF=  392
   support grid    NGXF=   144 NGYF=  144 NGZF=  392
   ions per type =               4   1   2  64
   NGX,Y,Z   is equivalent  to a cutoff of  10.90, 10.90, 10.86 a.u.
   NGXF,Y,Z  is equivalent  to a cutoff of  21.80, 21.80, 21.72 a.u.

 SYSTEM =  Pd_111_surface                          
 POSCAR =  H N O Pd                                

 Startparameter for this run:
   NWRITE =      2    write-flag & timer
   PREC   = accura    normal or accurate (medium, high low for compatibility)
   ISTART =      0    job   : 0-new  1-cont  2-samecut
   ICHARG =      2    charge: 1-file 2-atom 10-const
   ISPIN  =      2    spin polarized calculation?
   LNONCOLLINEAR =      F non collinear calculations
   LSORBIT =      F    spin-orbit coupling
   INIWAV =      1    electr: 0-lowe 1-rand  2-diag
   LASPH  =      F    aspherical Exc in radial PAW
   METAGGA=      F    non-selfconsistent MetaGGA calc.

 Electronic Relaxation 1
   ENCUT  =  400.0 eV  29.40 Ry    5.42 a.u.  17.91 17.91 48.92*2*pi/ulx,y,z
   ENINI  =  400.0     initial cutoff
   ENAUG  =  627.1 eV  augmentation charge cutoff
   NELM   =    100;   NELMIN=  2; NELMDL= -5     # of ELM steps 
   EDIFF  = 0.1E-04   stopping-criterion for ELM
   LREAL  =      T    real-space projection
   NLSPLINE    = F    spline interpolate recip. space projectors
   LCOMPAT=      F    compatible to vasp.4.4
   GGA_COMPAT  = T    GGA compatible to vasp.4.4-vasp.4.6
   LMAXPAW     = -100 max onsite density
   LMAXMIX     =    2 max onsite mixed and CHGCAR
   VOSKOWN=      0    Vosko Wilk Nusair interpolation
   ROPT   =   -0.00025  -0.00025  -0.00025  -0.00025
 Ionic relaxation
   EDIFFG = -.5E-01   stopping-criterion for IOM
   NSW    =    300    number of steps for IOM
   NBLOCK =      1;   KBLOCK =    300    inner block; outer block 
   IBRION =      1    ionic relax: 0-MD 1-quasi-New 2-CG
   NFREE  =      0    steps in history (QN), initial steepest desc. (CG)
   ISIF   =      2    stress and relaxation
   IWAVPR =     11    prediction:  0-non 1-charg 2-wave 3-comb
   ISYM   =      2    0-nonsym 1-usesym 2-fastsym
   LCORR  =      T    Harris-Foulkes like correction to forces

   POTIM  = 0.3000    time-step for ionic-motion
   TEIN   =    0.0    initial temperature
   TEBEG  =    0.0;   TEEND  =   0.0 temperature during run
   SMASS  =  -3.00    Nose mass-parameter (am)
   estimated Nose-frequenzy (Omega)   =  0.10E-29 period in steps =****** mass=  -0.276E-26a.u.
   SCALEE = 1.0000    scale energy and forces
   NPACO  =    256;   APACO  = 16.0  distance and # of slots for P.C.
   PSTRESS=    0.0 pullay stress

  Mass of Ions in am
   POMASS =   1.00 14.00 16.00106.42
  Ionic Valenz
   ZVAL   =   1.00  5.00  6.00 10.00
  Atomic Wigner-Seitz radii
   RWIGS  =  -1.00 -1.00 -1.00 -1.00
  virtual crystal weights 
   VCA    =   1.00  1.00  1.00  1.00
   NELECT =     661.0000    total number of electrons
   NUPDOWN=      -1.0000    fix difference up-down

 DOS related values:
   EMIN   =  10.00;   EMAX   =-10.00  energy-range for DOS
   EFERMI =   0.00
   ISMEAR =     1;   SIGMA  =   0.20  broadening in eV -4-tet -1-fermi 0-gaus

 Electronic relaxation 2 (details)
   IALGO  =     68    algorithm
   LDIAG  =      T    sub-space diagonalisation (order eigenvalues)
   LSUBROT=      F    optimize rotation matrix (better conditioning)
   TURBO    =      0    0=normal 1=particle mesh
   IRESTART =      0    0=no restart 2=restart with 2 vectors
   NREBOOT  =      0    no. of reboots
   NMIN     =      0    reboot dimension
   EREF     =   0.00    reference energy to select bands
   IMIX   =      4    mixing-type and parameters
     AMIX     =   0.40;   BMIX     =  1.00
     AMIX_MAG =   1.60;   BMIX_MAG =  1.00
     AMIN     =   0.10
     WC   =   100.;   INIMIX=   1;  MIXPRE=   1;  MAXMIX= -45

 Intra band minimization:
   WEIMIN = 0.0010     energy-eigenvalue tresh-hold
   EBREAK =  0.58E-08  absolut break condition
   DEPER  =   0.30     relativ break condition  

   TIME   =   0.40     timestep for ELM

  volume/ion in A,a.u.               =      50.96       343.89
  Fermi-wavevector in a.u.,A,eV,Ry     =   0.928925  1.755414 11.740487  0.862901
  Thomas-Fermi vector in A             =   2.055153
 
 Write flags
   LWAVE        =      F    write WAVECAR
   LDOWNSAMPLE  =      F    k-point downsampling of WAVECAR
   LCHARG       =      F    write CHGCAR
   LVTOT        =      F    write LOCPOT, total local potential
   LVHAR        =      F    write LOCPOT, Hartree potential only
   LELF         =      F    write electronic localiz. function (ELF)
   LORBIT       =     11    0 simple, 1 ext, 2 COOP (PROOUT), +10 PAW based schemes


 Dipole corrections
   LMONO  =      F    monopole corrections only (constant potential shift)
   LDIPOL =      T    correct potential (dipole corrections)
   IDIPOL =      3    1-x, 2-y, 3-z, 4-all directions 
   EPSILON=  1.0000000 bulk dielectric constant

 Exchange correlation treatment:
   GGA     =    --    GGA type
   LEXCH   =     8    internal setting for exchange type
   VOSKOWN=      0    Vosko Wilk Nusair interpolation
   LHFCALC =     F    Hartree Fock is set to
   LHFONE  =     F    Hartree Fock one center treatment
   AEXX    =    0.0000 exact exchange contribution

 Linear response parameters
   LEPSILON=     F    determine dielectric tensor
   LRPA    =     F    only Hartree local field effects (RPA)
   LNABLA  =     F    use nabla operator in PAW spheres
   LVEL    =     F    velocity operator in full k-point grid
   LINTERFAST=   F  fast interpolation
   KINTER  =     0    interpolate to denser k-point grid
   CSHIFT  =0.1000    complex shift for real part using Kramers Kronig
   OMEGAMAX=  -1.0    maximum frequency
   DEG_THRESHOLD= 0.2000000E-02 threshold for treating states as degnerate
   RTIME   =   -0.100 relaxation time in fs
  (WPLASMAI=    0.000 imaginary part of plasma frequency in eV, 0.658/RTIME)
   DFIELD  = 0.0000000 0.0000000 0.0000000 field for delta impulse in time
 
 Orbital magnetization related:
   ORBITALMAG=     F  switch on orbital magnetization
   LCHIMAG   =     F  perturbation theory with respect to B field
   DQ        =  0.001000  dq finite difference perturbation B field
   LLRAUG    =     F  two centre corrections for induced B field



--------------------------------------------------------------------------------------------------------


 quasi-Newton-method for relaxation of ions
   using selective dynamics as specified on POSCAR
 charge density and potential will be updated during run
 spin polarized calculation
 RMM-DIIS sequential band-by-band and
  variant of blocked Davidson during initial phase
 perform sub-space diagonalisation
    before iterative eigenvector-optimisation
 modified Broyden-mixing scheme, WC =      100.0
 initial mixing is a Kerker type mixing with AMIX =  0.4000 and BMIX =      1.0000
 Hartree-type preconditioning will be used
 using additional bands          101
 real space projection scheme for non local part
 use partial core corrections
 calculate Harris-corrections to forces 
   (improved forces if not selfconsistent)
 use gradient corrections 
 use of overlap-Matrix (Vanderbilt PP)
 Methfessel and Paxton  Order N= 1 SIGMA  =   0.20


--------------------------------------------------------------------------------------------------------


  energy-cutoff  :      400.00
  volume of cell :     3618.13
      direct lattice vectors                 reciprocal lattice vectors
    10.982000000  0.000000000  0.000000000     0.091058095  0.000000000  0.000000000
     0.000000000 10.982000000  0.000000000     0.000000000  0.091058095  0.000000000
     0.000000000  0.000000000 30.000000000     0.000000000  0.000000000  0.033333333

  length of vectors
    10.982000000 10.982000000 30.000000000     0.091058095  0.091058095  0.033333333


 
 k-points in units of 2pi/SCALE and weight: K-Point Grid                            
   0.01138226  0.01138226  0.00000000       0.125
   0.03414679  0.01138226  0.00000000       0.125
  -0.03414679  0.01138226  0.00000000       0.125
  -0.01138226  0.01138226  0.00000000       0.125
   0.01138226  0.03414679  0.00000000       0.125
   0.03414679  0.03414679  0.00000000       0.125
  -0.03414679  0.03414679  0.00000000       0.125
  -0.01138226  0.03414679  0.00000000       0.125
 
 k-points in reciprocal lattice and weights: K-Point Grid                            
   0.12500000  0.12500000  0.00000000       0.125
   0.37500000  0.12500000  0.00000000       0.125
  -0.37500000  0.12500000  0.00000000       0.125
  -0.12500000  0.12500000  0.00000000       0.125
   0.12500000  0.37500000  0.00000000       0.125
   0.37500000  0.37500000  0.00000000       0.125
  -0.37500000  0.37500000  0.00000000       0.125
  -0.12500000  0.37500000  0.00000000       0.125
 
 position of ions in fractional coordinates (direct lattice) 
   0.45992642  0.32456446  0.68499694
   0.11551737  0.37917174  0.68619384
   0.25112829  0.32894094  0.69121550
   0.15820679  0.26445288  0.64922509
   0.38504090  0.37563430  0.62823262
   0.38864060  0.37571721  0.67837661
   0.16183698  0.30296901  0.68982376
   0.12497786  0.12497142  0.40244686
   0.12498397  0.37506163  0.40246170
   0.12498441  0.62506057  0.40249782
   0.12498276  0.87495683  0.40248547
   0.37501537  0.12498422  0.40243459
   0.37501347  0.37507869  0.40243751
   0.37502044  0.62509026  0.40247986
   0.37502288  0.87497906  0.40247820
   0.62503604  0.12497353  0.40244858
   0.62505334  0.37507664  0.40244320
   0.62505734  0.62509751  0.40249038
   0.62503520  0.87498166  0.40249683
   0.87499219  0.12496651  0.40246506
   0.87501582  0.37505908  0.40247175
   0.87501937  0.62506005  0.40251488
   0.87499183  0.87495864  0.40250690
   0.00040715  0.99979291  0.46781377
   0.00076080  0.24951749  0.46772843
   0.00094319  0.50004581  0.46780035
   0.00075007  0.74960112  0.46788557
   0.25005203  0.99955062  0.46760531
   0.25008158  0.24924337  0.46750370
   0.25043987  0.50005270  0.46752171
   0.25028394  0.74953868  0.46771646
   0.50102032  0.99969767  0.46750688
   0.50116138  0.24943069  0.46749153
   0.50143034  0.50047282  0.46729208
   0.50111282  0.74992640  0.46772624
   0.75058740  0.99989737  0.46772479
   0.75108572  0.24945810  0.46775114
   0.75119490  0.50034977  0.46767209
   0.75086290  0.74998891  0.46772698
   0.12681265  0.12530134  0.53348124
   0.12568737  0.37451995  0.53280651
   0.12810274  0.62279986  0.53380473
   0.12592280  0.87428462  0.53283797
   0.37573207  0.12315922  0.53228616
   0.37653404  0.37485712  0.53037343
   0.37658466  0.62533011  0.53255853
   0.37577138  0.87455902  0.53257115
   0.62503488  0.12595442  0.53353415
   0.62826434  0.37511295  0.53235225
   0.62539617  0.62360919  0.53342273
   0.62574508  0.87491313  0.53278392
   0.87647611  0.12499632  0.53304973
   0.87740995  0.37444524  0.53289719
   0.87674977  0.62441303  0.53294612
   0.87596825  0.87477676  0.53279333
   0.00078997  0.99901244  0.59818078
   0.00350599  0.24962711  0.59947196
   0.00271155  0.49916519  0.59874244
   0.00127279  0.74930766  0.59813738
   0.25115062  0.99838432  0.59830477
   0.25117342  0.24799460  0.59930773
   0.25405666  0.49826693  0.60000397
   0.25154782  0.74945669  0.59823209
   0.50079271  0.99927445  0.59822310
   0.50176355  0.24938700  0.59850233
   0.50359279  0.49990388  0.59950436
   0.50128309  0.75027972  0.59818717
   0.75128799  0.99953925  0.59803966
   0.75320009  0.24995782  0.59829157
   0.75365139  0.49958703  0.59827898
   0.75149575  0.74993432  0.59787263
 
 position of ions in cartesian coordinates  (Angst):
   5.05091199  3.56436690 20.54990806
   1.26861171  4.16406409 20.58581509
   2.75789085  3.61242940 20.73646514
   1.73742700  2.90422154 19.47675278
   4.22851913  4.12521584 18.84697853
   4.26805105  4.12612637 20.35129835
   1.77729369  3.32720567 20.69471267
   1.37250688  1.37243616 12.07340582
   1.37257393  4.11892683 12.07385103
   1.37257879  6.86441514 12.07493461
   1.37256063  9.60877587 12.07456415
   4.11841876  1.37257673 12.07303759
   4.11839793  4.11911420 12.07312527
   4.11847442  6.86474124 12.07439587
   4.11850130  9.60902003 12.07434607
   6.86414579  1.37245926 12.07345752
   6.86433579  4.11909169 12.07329596
   6.86437973  6.86482091 12.07471138
   6.86413660  9.60904855 12.07490493
   9.60916423  1.37238216 12.07395187
   9.60942378  4.11889880 12.07415251
   9.60946277  6.86440942 12.07544640
   9.60916028  9.60879577 12.07520690
   0.00447129 10.97972579 14.03441310
   0.00835512  2.74020108 14.03185281
   0.01035811  5.49150307 14.03401061
   0.00823729  8.23211948 14.03656719
   2.74607142 10.97706486 14.02815933
   2.74639589  2.73719074 14.02511098
   2.75033064  5.49157877 14.02565135
   2.74861826  8.23143375 14.03149371
   5.50220510 10.97867985 14.02520644
   5.50375423  2.73924786 14.02474575
   5.50670800  5.49619250 14.01876230
   5.50322098  8.23569178 14.03178712
   8.24295077 10.98087294 14.03174383
   8.24842341  2.73954889 14.03253428
   8.24962241  5.49484115 14.03016270
   8.24597636  8.23637823 14.03180953
   1.39265656  1.37605935 16.00443715
   1.38029868  4.11297809 15.98419533
   1.40682429  6.83958801 16.01414197
   1.38288415  9.60139365 15.98513905
   4.12628954  1.35253453 15.96858478
   4.13509688  4.11668084 15.91120276
   4.13565271  6.86737522 15.97675595
   4.12672134  9.60440720 15.97713461
   6.86413306  1.38323144 16.00602463
   6.89959896  4.11949042 15.97056738
   6.86810077  6.84847608 16.00268190
   6.87193250  9.60829597 15.98351750
   9.62546067  1.37270957 15.99149179
   9.63571606  4.11215766 15.98691557
   9.62846599  6.85730391 15.98838373
   9.61988335  9.60679833 15.98379993
   0.00867545 10.97115460 17.94542329
   0.03850278  2.74140496 17.98415894
   0.02977826  5.48183209 17.96227317
   0.01397776  8.22889676 17.94412153
   2.75813612 10.96425661 17.94914310
   2.75838649  2.72347666 17.97923202
   2.79005022  5.47196741 18.00011925
   2.76249811  8.23053333 17.94696283
   5.49970555 10.97403197 17.94669301
   5.51036731  2.73876799 17.95506988
   5.53045601  5.48994444 17.98513086
   5.50509084  8.23957183 17.94561513
   8.25064471 10.97694000 17.94118980
   8.27164338  2.74503680 17.94874702
   8.27659961  5.48646476 17.94836935
   8.25292638  8.23577867 17.93617876
 


--------------------------------------------------------------------------------------------------------


 k-point  1 :   0.1250 0.1250 0.0000  plane waves:   65671
 k-point  2 :   0.3750 0.1250 0.0000  plane waves:   65719
 k-point  3 :  -0.3750 0.1250 0.0000  plane waves:   65719
 k-point  4 :  -0.1250 0.1250 0.0000  plane waves:   65671
 k-point  5 :   0.1250 0.3750 0.0000  plane waves:   65719
 k-point  6 :   0.3750 0.3750 0.0000  plane waves:   65776
 k-point  7 :  -0.3750 0.3750 0.0000  plane waves:   65776
 k-point  8 :  -0.1250 0.3750 0.0000  plane waves:   65719

 maximum and minimum number of plane-waves per node :      5503     5452

 maximum number of plane-waves:     65776
 maximum index in each direction: 
   IXMAX=   18   IYMAX=   17   IZMAX=   48
   IXMIN=  -18   IYMIN=  -18   IZMIN=  -48


 real space projection operators:
  total allocation   :      39751.95 KBytes
  max/ min on nodes  :       3352.71       3280.80


 parallel 3D FFT for wavefunctions:
    minimum data exchange during FFTs selected (reduces bandwidth)
 parallel 3D FFT for charge:
    minimum data exchange during FFTs selected (reduces bandwidth)


 total amount of memory used by VASP MPI-rank0   758230. kBytes
=======================================================================

   base      :      30000. kBytes
   nonlr-proj:      11100. kBytes
   fftplans  :      25316. kBytes
   grid      :      72092. kBytes
   one-center:        186. kBytes
   wavefun   :     619536. kBytes
 
     INWAV:  cpu time    0.0001: real time    0.0002
 Broyden mixing: mesh for mixing (old mesh)
   NGX = 35   NGY = 35   NGZ = 97
  (NGX  =144   NGY  =144   NGZ  =392)
  gives a total of 118825 points

 initial charge density was supplied:
 charge density of overlapping atoms calculated
 number of electron     661.0000000 magnetization      71.0000000
 keeping initial charge density in first step


--------------------------------------------------------------------------------------------------------


 Maximum index for non-local projection operator          509
 Maximum index for augmentation-charges         1133 (set IRDMAX)


--------------------------------------------------------------------------------------------------------


 First call to EWALD:  gamma=   0.115
 Maximum number of real-space cells 4x 4x 2
 Maximum number of reciprocal cells 2x 2x 5

    FEWALD:  cpu time    0.0134: real time    0.0085


--------------------------------------- Iteration      1(   1)  ---------------------------------------


    POTLOK:  cpu time    1.0520: real time    0.9852
    SETDIJ:  cpu time    0.0880: real time    0.0600
     EDDAV:  cpu time  295.8770: real time  148.3162
       DOS:  cpu time    0.2423: real time    0.1816
    --------------------------------------------
      LOOP:  cpu time  297.2594: real time  149.5430

 eigenvalue-minimisations  : 14008
 total energy-change (2. order) : 0.4018515E+04  (-0.2460737E+05)
 number of electron     661.0000000 magnetization      71.0000000
 augmentation part      661.0000000 magnetization      71.0000000

 DIPCOR: dipole corrections for dipol
 direction  3 min pos     1,
 dipolmoment           0.000000      0.000000     -0.000179 electrons x Angstroem
 Tr[quadrupol]    -13720.190906

 energy correction for charged system         0.000000 eV
 dipol+quadrupol energy correction           -0.000000 eV
 added-field ion interaction          0.001021 eV  (added to PSCEN)


 Free energy of the ion-electron system (eV)
  ---------------------------------------------------
  alpha Z        PSCENC =       776.22367757
  Ewald energy   TEWEN  =    384998.84206780
  -Hartree energ DENC   =   -438392.40374408
  -exchange      EXHF   =         0.00000000
  -V(xc)+E(xc)   XCENC  =     -1791.92372709
  PAW double counting   =     52530.25304117   -48553.25775720
  entropy T*S    EENTRO =        -0.00235970
  eigenvalues    EBANDS =      1448.25906151
  atomic energy  EATOM  =     53002.52505022
  Solvation  Ediel_sol  =         0.00000000
  ---------------------------------------------------
  free energy    TOTEN  =      4018.51531021 eV

  energy without entropy =     4018.51766991  energy(sigma->0) =     4018.51609678


--------------------------------------------------------------------------------------------------------




--------------------------------------- Iteration      1(   2)  ---------------------------------------


     EDDAV:  cpu time  337.1295: real time  168.9960
       DOS:  cpu time    0.1254: real time    0.0628
    --------------------------------------------
      LOOP:  cpu time  337.2550: real time  169.0588

 eigenvalue-minimisations  : 16512
 total energy-change (2. order) :-0.4095506E+04  (-0.3775681E+04)
 number of electron     661.0000000 magnetization      71.0000000
 augmentation part      661.0000000 magnetization      71.0000000

 DIPCOR: dipole corrections for dipol
 direction  3 min pos     1,
 dipolmoment           0.000000      0.000000     -0.000179 electrons x Angstroem
 Tr[quadrupol]    -13720.190906

 energy correction for charged system         0.000000 eV
 dipol+quadrupol energy correction           -0.000000 eV
 added-field ion interaction          0.001021 eV  (added to PSCEN)


 Free energy of the ion-electron system (eV)
  ---------------------------------------------------
  alpha Z        PSCENC =       776.22367757
  Ewald energy   TEWEN  =    384998.84206780
  -Hartree energ DENC   =   -438392.40374408
  -exchange      EXHF   =         0.00000000
  -V(xc)+E(xc)   XCENC  =     -1791.92372709
  PAW double counting   =     52530.25304117   -48553.25775720
  entropy T*S    EENTRO =        -0.01012499
  eigenvalues    EBANDS =     -2647.23917418
  atomic energy  EATOM  =     53002.52505022
  Solvation  Ediel_sol  =         0.00000000
  ---------------------------------------------------
  free energy    TOTEN  =       -76.99069078 eV

  energy without entropy =      -76.98056578  energy(sigma->0) =      -76.98731578


--------------------------------------------------------------------------------------------------------




--------------------------------------- Iteration      1(   3)  ---------------------------------------


     EDDAV:  cpu time  319.7382: real time  160.2910
       DOS:  cpu time    0.1244: real time    0.0624
    --------------------------------------------
      LOOP:  cpu time  319.8626: real time  160.3533

 eigenvalue-minimisations  : 15560
 total energy-change (2. order) :-0.2699532E+03  (-0.2479540E+03)
 number of electron     661.0000000 magnetization      71.0000000
 augmentation part      661.0000000 magnetization      71.0000000

 DIPCOR: dipole corrections for dipol
 direction  3 min pos     1,
 dipolmoment           0.000000      0.000000     -0.000179 electrons x Angstroem
 Tr[quadrupol]    -13720.190906

 energy correction for charged system         0.000000 eV
 dipol+quadrupol energy correction           -0.000000 eV
 added-field ion interaction          0.001021 eV  (added to PSCEN)


 Free energy of the ion-electron system (eV)
  ---------------------------------------------------
  alpha Z        PSCENC =       776.22367757
  Ewald energy   TEWEN  =    384998.84206780
  -Hartree energ DENC   =   -438392.40374408
  -exchange      EXHF   =         0.00000000
  -V(xc)+E(xc)   XCENC  =     -1791.92372709
  PAW double counting   =     52530.25304117   -48553.25775720
  entropy T*S    EENTRO =         0.13892043
  eigenvalues    EBANDS =     -2917.34141837
  atomic energy  EATOM  =     53002.52505022
  Solvation  Ediel_sol  =         0.00000000
  ---------------------------------------------------
  free energy    TOTEN  =      -346.94388954 eV

  energy without entropy =     -347.08280997  energy(sigma->0) =     -346.99019635


--------------------------------------------------------------------------------------------------------




--------------------------------------- Iteration      1(   4)  ---------------------------------------


     EDDAV:  cpu time  325.0874: real time  162.9566
       DOS:  cpu time    0.1252: real time    0.0628
    --------------------------------------------
      LOOP:  cpu time  325.2126: real time  163.0194

 eigenvalue-minimisations  : 15792
 total energy-change (2. order) :-0.7048915E+01  (-0.6931224E+01)
 number of electron     661.0000000 magnetization      71.0000000
 augmentation part      661.0000000 magnetization      71.0000000

 DIPCOR: dipole corrections for dipol
 direction  3 min pos     1,
 dipolmoment           0.000000      0.000000     -0.000179 electrons x Angstroem
 Tr[quadrupol]    -13720.190906

 energy correction for charged system         0.000000 eV
 dipol+quadrupol energy correction           -0.000000 eV
 added-field ion interaction          0.001021 eV  (added to PSCEN)


 Free energy of the ion-electron system (eV)
  ---------------------------------------------------
  alpha Z        PSCENC =       776.22367757
  Ewald energy   TEWEN  =    384998.84206780
  -Hartree energ DENC   =   -438392.40374408
  -exchange      EXHF   =         0.00000000
  -V(xc)+E(xc)   XCENC  =     -1791.92372709
  PAW double counting   =     52530.25304117   -48553.25775720
  entropy T*S    EENTRO =         0.13914790
  eigenvalues    EBANDS =     -2924.39056046
  atomic energy  EATOM  =     53002.52505022
  Solvation  Ediel_sol  =         0.00000000
  ---------------------------------------------------
  free energy    TOTEN  =      -353.99280416 eV

  energy without entropy =     -354.13195206  energy(sigma->0) =     -354.03918679


--------------------------------------------------------------------------------------------------------




--------------------------------------- Iteration      1(   5)  ---------------------------------------


     EDDAV:  cpu time  337.7867: real time  169.3411
       DOS:  cpu time    0.1263: real time    0.0633
    CHARGE:  cpu time    7.1165: real time    6.9231
    MIXING:  cpu time    0.0420: real time    0.0211
    --------------------------------------------
      LOOP:  cpu time  345.0716: real time  176.3486

 eigenvalue-minimisations  : 16704
 total energy-change (2. order) :-0.2897063E+00  (-0.2886398E+00)
 number of electron     660.9999660 magnetization      68.3211702
 augmentation part      261.2945352 magnetization      54.5659863

 DIPCOR: dipole corrections for dipol
 direction  3 min pos     1,
 dipolmoment           0.000000      0.000000     -0.000179 electrons x Angstroem
 Tr[quadrupol]    -13720.190906

 energy correction for charged system         0.000000 eV
 dipol+quadrupol energy correction           -0.000000 eV
 added-field ion interaction          0.001021 eV  (added to PSCEN)


 Broyden mixing:
  rms(total) = 0.59980E+01    rms(broyden)= 0.59971E+01
  rms(prec ) = 0.60542E+01
  weight for this iteration     100.00

 Free energy of the ion-electron system (eV)
  ---------------------------------------------------
  alpha Z        PSCENC =       776.22367757
  Ewald energy   TEWEN  =    384998.84206780
  -Hartree energ DENC   =   -438392.40374408
  -exchange      EXHF   =         0.00000000
  -V(xc)+E(xc)   XCENC  =     -1791.92372709
  PAW double counting   =     52530.25304117   -48553.25775720
  entropy T*S    EENTRO =         0.13901825
  eigenvalues    EBANDS =     -2924.68013711
  atomic energy  EATOM  =     53002.52505022
  Solvation  Ediel_sol  =         0.00000000
  ---------------------------------------------------
  free energy    TOTEN  =      -354.28251047 eV

  energy without entropy =     -354.42152872  energy(sigma->0) =     -354.32884988


--------------------------------------------------------------------------------------------------------




--------------------------------------- Iteration      1(   6)  ---------------------------------------


    POTLOK:  cpu time    0.9624: real time    0.8843
    SETDIJ:  cpu time    0.0764: real time    0.0478
    EDDIAG:  cpu time   48.1345: real time   24.1276
  RMM-DIIS:  cpu time  194.8378: real time   97.6605
    ORTHCH:  cpu time    6.9209: real time    3.4689
       DOS:  cpu time    0.1291: real time    0.0647
    CHARGE:  cpu time    7.0765: real time    6.8869
    MIXING:  cpu time    0.0408: real time    0.0204
    --------------------------------------------
      LOOP:  cpu time  258.1784: real time  133.1611

 eigenvalue-minimisations  : 13837
 total energy-change (2. order) : 0.3724131E+02  (-0.9497271E+01)
 number of electron     660.9999653 magnetization      65.2325831
 augmentation part      271.3995469 magnetization      49.1668567

 DIPCOR: dipole corrections for dipol
 direction  3 min pos     1,
 dipolmoment           0.000000      0.000000     -0.243620 electrons x Angstroem
 Tr[quadrupol]    -13726.568728

 energy correction for charged system         0.000000 eV
 dipol+quadrupol energy correction           -0.001484 eV
 added-field ion interaction          1.389012 eV  (added to PSCEN)


 Broyden mixing:
  rms(total) = 0.33521E+01    rms(broyden)= 0.33518E+01
  rms(prec ) = 0.34507E+01
  weight for this iteration     100.00

 eigenvalues of (default mixing * dielectric matrix)
  average eigenvalue GAMMA=   1.0041
  1.0041

 Free energy of the ion-electron system (eV)
  ---------------------------------------------------
  alpha Z        PSCENC =       777.61018394
  Ewald energy   TEWEN  =    384998.84206780
  -Hartree energ DENC   =   -438255.70993475
  -exchange      EXHF   =         0.00000000
  -V(xc)+E(xc)   XCENC  =     -1784.64925737
  PAW double counting   =     56463.75556532   -52563.30614828
  entropy T*S    EENTRO =         0.08830216
  eigenvalues    EBANDS =     -2956.19703120
  atomic energy  EATOM  =     53002.52505022
  Solvation  Ediel_sol  =         0.00000000
  ---------------------------------------------------
  free energy    TOTEN  =      -317.04120215 eV

  energy without entropy =     -317.12950431  energy(sigma->0) =     -317.07063620


--------------------------------------------------------------------------------------------------------




--------------------------------------- Iteration      1(   7)  ---------------------------------------


    POTLOK:  cpu time    0.9448: real time    0.8638
    SETDIJ:  cpu time    0.0729: real time    0.0461
    EDDIAG:  cpu time   48.3905: real time   24.2582
  RMM-DIIS:  cpu time  194.6690: real time   97.5775
    ORTHCH:  cpu time    6.9351: real time    3.4760
       DOS:  cpu time    0.1288: real time    0.0646
    CHARGE:  cpu time    7.3004: real time    7.1109
    MIXING:  cpu time    0.0450: real time    0.0225
    --------------------------------------------
      LOOP:  cpu time  258.4866: real time  133.4197

 eigenvalue-minimisations  : 13838
 total energy-change (2. order) :-0.6080579E+02  (-0.4648640E+01)
 number of electron     660.9999612 magnetization      64.1036002
 augmentation part      266.4478442 magnetization      49.6630531

 DIPCOR: dipole corrections for dipol
 direction  3 min pos     1,
 dipolmoment           0.000000      0.000000      1.850417 electrons x Angstroem
 Tr[quadrupol]    -13736.410372

 energy correction for charged system         0.000000 eV
 dipol+quadrupol energy correction           -0.085622 eV
 added-field ion interaction        -10.550264 eV  (added to PSCEN)


 Broyden mixing:
  rms(total) = 0.61033E+01    rms(broyden)= 0.61031E+01
  rms(prec ) = 0.79995E+01
  weight for this iteration     100.00

 eigenvalues of (default mixing * dielectric matrix)
  average eigenvalue GAMMA=   0.7118
  1.1534  0.2702

 Free energy of the ion-electron system (eV)
  ---------------------------------------------------
  alpha Z        PSCENC =       765.58676965
  Ewald energy   TEWEN  =    384998.84206780
  -Hartree energ DENC   =   -438648.89900666
  -exchange      EXHF   =         0.00000000
  -V(xc)+E(xc)   XCENC  =     -1783.63398382
  PAW double counting   =     59377.17564260   -55509.14506470
  entropy T*S    EENTRO =        -0.03356437
  eigenvalues    EBANDS =     -2580.26490611
  atomic energy  EATOM  =     53002.52505022
  Solvation  Ediel_sol  =         0.00000000
  ---------------------------------------------------
  free energy    TOTEN  =      -377.84699539 eV

  energy without entropy =     -377.81343102  energy(sigma->0) =     -377.83580726


--------------------------------------------------------------------------------------------------------




--------------------------------------- Iteration      1(   8)  ---------------------------------------


    POTLOK:  cpu time    0.9609: real time    0.8824
    SETDIJ:  cpu time    0.0747: real time    0.0469
    EDDIAG:  cpu time   48.3928: real time   24.9152
  RMM-DIIS:  cpu time  193.3357: real time   96.9112
    ORTHCH:  cpu time    6.9309: real time    3.4739
       DOS:  cpu time    0.1246: real time    0.0624
    CHARGE:  cpu time    7.3065: real time    7.1157
    MIXING:  cpu time    0.0446: real time    0.0224
    --------------------------------------------
      LOOP:  cpu time  257.1706: real time  133.4300

 eigenvalue-minimisations  : 13841
 total energy-change (2. order) : 0.5140680E+02  (-0.3373519E+01)
 number of electron     660.9999660 magnetization      61.6796764
 augmentation part      269.9115619 magnetization      43.9379497

 DIPCOR: dipole corrections for dipol
 direction  3 min pos     1,
 dipolmoment           0.000000      0.000000     -1.446467 electrons x Angstroem
 Tr[quadrupol]    -13739.087431

 energy correction for charged system         0.000000 eV
 dipol+quadrupol energy correction           -0.052320 eV
 added-field ion interaction          8.247120 eV  (added to PSCEN)


 Broyden mixing:
  rms(total) = 0.33348E+01    rms(broyden)= 0.33342E+01
  rms(prec ) = 0.40142E+01
  weight for this iteration     100.00

 eigenvalues of (default mixing * dielectric matrix)
  average eigenvalue GAMMA=   0.8160
  1.6705  0.6428  0.1346

 Free energy of the ion-electron system (eV)
  ---------------------------------------------------
  alpha Z        PSCENC =       784.41745681
  Ewald energy   TEWEN  =    384998.84206780
  -Hartree energ DENC   =   -438690.79883795
  -exchange      EXHF   =         0.00000000
  -V(xc)+E(xc)   XCENC  =     -1782.66143857
  PAW double counting   =     60085.68184748   -56230.09597141
  entropy T*S    EENTRO =         0.05084752
  eigenvalues    EBANDS =     -2494.40121922
  atomic energy  EATOM  =     53002.52505022
  Solvation  Ediel_sol  =         0.00000000
  ---------------------------------------------------
  free energy    TOTEN  =      -326.44019732 eV

  energy without entropy =     -326.49104484  energy(sigma->0) =     -326.45714650


--------------------------------------------------------------------------------------------------------




--------------------------------------- Iteration      1(   9)  ---------------------------------------


    POTLOK:  cpu time    0.9463: real time    0.8666
    SETDIJ:  cpu time    0.0726: real time    0.0459
    EDDIAG:  cpu time   48.3011: real time   24.2129
  RMM-DIIS:  cpu time  194.1950: real time   97.3403
    ORTHCH:  cpu time    6.9290: real time    3.4728
       DOS:  cpu time    0.1276: real time    0.0639
    CHARGE:  cpu time    7.1207: real time    6.9358
    MIXING:  cpu time    0.0423: real time    0.0214
    --------------------------------------------
      LOOP:  cpu time  257.7898: real time  133.0150

 eigenvalue-minimisations  : 13856
 total energy-change (2. order) : 0.1734578E+02  (-0.2146405E+01)
 number of electron     660.9999655 magnetization      59.6354065
 augmentation part      272.9336848 magnetization      43.6810733

 DIPCOR: dipole corrections for dipol
 direction  3 min pos     1,
 dipolmoment           0.000000      0.000000     -0.892199 electrons x Angstroem
 Tr[quadrupol]    -13737.409622

 energy correction for charged system         0.000000 eV
 dipol+quadrupol energy correction           -0.019905 eV
 added-field ion interaction          5.086929 eV  (added to PSCEN)


 Broyden mixing:
  rms(total) = 0.29631E+01    rms(broyden)= 0.29627E+01
  rms(prec ) = 0.33381E+01
  weight for this iteration     100.00

 eigenvalues of (default mixing * dielectric matrix)
  average eigenvalue GAMMA=   0.7948
  2.0320  0.7622  0.1423  0.2428

 Free energy of the ion-electron system (eV)
  ---------------------------------------------------
  alpha Z        PSCENC =       781.28968020
  Ewald energy   TEWEN  =    384998.84206780
  -Hartree energ DENC   =   -438578.62989607
  -exchange      EXHF   =         0.00000000
  -V(xc)+E(xc)   XCENC  =     -1777.88193224
  PAW double counting   =     61293.24097038   -57457.54142435
  entropy T*S    EENTRO =        -0.07447086
  eigenvalues    EBANDS =     -2570.86445758
  atomic energy  EATOM  =     53002.52505022
  Solvation  Ediel_sol  =         0.00000000
  ---------------------------------------------------
  free energy    TOTEN  =      -309.09441250 eV

  energy without entropy =     -309.01994164  energy(sigma->0) =     -309.06958888


--------------------------------------------------------------------------------------------------------




--------------------------------------- Iteration      1(  10)  ---------------------------------------


    POTLOK:  cpu time    0.9546: real time    0.9248
    SETDIJ:  cpu time    0.0759: real time    0.0475
    EDDIAG:  cpu time   48.0614: real time   24.0909
  RMM-DIIS:  cpu time  194.4599: real time  105.2522
    ORTHCH:  cpu time    7.0039: real time    3.5109
       DOS:  cpu time    0.1293: real time    0.0648
    CHARGE:  cpu time    7.1570: real time    6.9677
    MIXING:  cpu time    0.0512: real time    0.0257
    --------------------------------------------
      LOOP:  cpu time  257.8379: real time  140.8291

 eigenvalue-minimisations  : 13850
 total energy-change (2. order) : 0.7940132E+01  (-0.8199259E+00)
 number of electron     660.9999646 magnetization      58.3083418
 augmentation part      272.8848484 magnetization      41.7345381

 DIPCOR: dipole corrections for dipol
 direction  3 min pos     1,
 dipolmoment           0.000000      0.000000     -0.543317 electrons x Angstroem
 Tr[quadrupol]    -13740.262559

 energy correction for charged system         0.000000 eV
 dipol+quadrupol energy correction           -0.007382 eV
 added-field ion interaction          3.097755 eV  (added to PSCEN)


 Broyden mixing:
  rms(total) = 0.19578E+01    rms(broyden)= 0.19575E+01
  rms(prec ) = 0.21037E+01
  weight for this iteration     100.00

 eigenvalues of (default mixing * dielectric matrix)
  average eigenvalue GAMMA=   0.7253
  2.1122  0.7957  0.3906  0.1558  0.1724

 Free energy of the ion-electron system (eV)
  ---------------------------------------------------
  alpha Z        PSCENC =       779.31302967
  Ewald energy   TEWEN  =    384998.84206780
  -Hartree energ DENC   =   -438694.18154780
  -exchange      EXHF   =         0.00000000
  -V(xc)+E(xc)   XCENC  =     -1775.83828452
  PAW double counting   =     62028.01811887   -58201.43016051
  entropy T*S    EENTRO =        -0.06006354
  eigenvalues    EBANDS =     -2438.34249073
  atomic energy  EATOM  =     53002.52505022
  Solvation  Ediel_sol  =         0.00000000
  ---------------------------------------------------
  free energy    TOTEN  =      -301.15428055 eV

  energy without entropy =     -301.09421700  energy(sigma->0) =     -301.13425937


--------------------------------------------------------------------------------------------------------




--------------------------------------- Iteration      1(  11)  ---------------------------------------


    POTLOK:  cpu time    0.9478: real time    0.9184
    SETDIJ:  cpu time    0.0729: real time    0.0461
    EDDIAG:  cpu time   48.7287: real time   24.4363
  RMM-DIIS:  cpu time  192.5343: real time   96.5367
    ORTHCH:  cpu time    7.0015: real time    3.5096
       DOS:  cpu time    0.1279: real time    0.0641
    CHARGE:  cpu time    7.1736: real time    6.9840
    MIXING:  cpu time    0.0521: real time    0.0261
    --------------------------------------------
      LOOP:  cpu time  256.6389: real time  132.5213

 eigenvalue-minimisations  : 13855
 total energy-change (2. order) : 0.7958549E+00  (-0.4137729E+00)
 number of electron     660.9999643 magnetization      57.3425039
 augmentation part      272.2583117 magnetization      40.5119491

 DIPCOR: dipole corrections for dipol
 direction  3 min pos     1,
 dipolmoment           0.000000      0.000000     -0.350141 electrons x Angstroem
 Tr[quadrupol]    -13741.843163

 energy correction for charged system         0.000000 eV
 dipol+quadrupol energy correction           -0.003066 eV
 added-field ion interaction          1.996349 eV  (added to PSCEN)


 Broyden mixing:
  rms(total) = 0.14863E+01    rms(broyden)= 0.14861E+01
  rms(prec ) = 0.16536E+01
  weight for this iteration     100.00

 eigenvalues of (default mixing * dielectric matrix)
  average eigenvalue GAMMA=   0.6655
  2.0626  0.7822  0.5575  0.1419  0.2244  0.2244

 Free energy of the ion-electron system (eV)
  ---------------------------------------------------
  alpha Z        PSCENC =       778.21593939
  Ewald energy   TEWEN  =    384998.84206780
  -Hartree energ DENC   =   -438773.75680697
  -exchange      EXHF   =         0.00000000
  -V(xc)+E(xc)   XCENC  =     -1776.24026627
  PAW double counting   =     62265.01753203   -58438.68992255
  entropy T*S    EENTRO =        -0.04090467
  eigenvalues    EBANDS =     -2356.23111467
  atomic energy  EATOM  =     53002.52505022
  Solvation  Ediel_sol  =         0.00000000
  ---------------------------------------------------
  free energy    TOTEN  =      -300.35842569 eV

  energy without entropy =     -300.31752102  energy(sigma->0) =     -300.34479080


--------------------------------------------------------------------------------------------------------




--------------------------------------- Iteration      1(  12)  ---------------------------------------


    POTLOK:  cpu time    0.9527: real time    0.8569
    SETDIJ:  cpu time    0.0726: real time    0.0460
    EDDIAG:  cpu time   48.3676: real time   24.2584
  RMM-DIIS:  cpu time  193.0162: real time   97.4443
    ORTHCH:  cpu time    7.0168: real time    3.5252
       DOS:  cpu time    0.1308: real time    0.0656
    CHARGE:  cpu time    7.2241: real time    7.0357
    MIXING:  cpu time    0.0479: real time    0.0240
    --------------------------------------------
      LOOP:  cpu time  256.8286: real time  133.2560

 eigenvalue-minimisations  : 13865
 total energy-change (2. order) :-0.1193662E+01  (-0.2317805E+00)
 number of electron     660.9999648 magnetization      56.3711942
 augmentation part      271.8435940 magnetization      39.8534138

 DIPCOR: dipole corrections for dipol
 direction  3 min pos     1,
 dipolmoment           0.000000      0.000000     -0.508457 electrons x Angstroem
 Tr[quadrupol]    -13742.337682

 energy correction for charged system         0.000000 eV
 dipol+quadrupol energy correction           -0.006465 eV
 added-field ion interaction          2.898997 eV  (added to PSCEN)


 Broyden mixing:
  rms(total) = 0.12559E+01    rms(broyden)= 0.12558E+01
  rms(prec ) = 0.13309E+01
  weight for this iteration     100.00

 eigenvalues of (default mixing * dielectric matrix)
  average eigenvalue GAMMA=   0.6353
  2.0721  0.7608  0.5328  0.4802  0.2810  0.1446  0.1755

 Free energy of the ion-electron system (eV)
  ---------------------------------------------------
  alpha Z        PSCENC =       779.11518857
  Ewald energy   TEWEN  =    384998.84206780
  -Hartree energ DENC   =   -438808.63501457
  -exchange      EXHF   =         0.00000000
  -V(xc)+E(xc)   XCENC  =     -1776.98924970
  PAW double counting   =     62274.24408256   -58444.95676190
  entropy T*S    EENTRO =         0.01383564
  eigenvalues    EBANDS =     -2325.71128608
  atomic energy  EATOM  =     53002.52505022
  Solvation  Ediel_sol  =         0.00000000
  ---------------------------------------------------
  free energy    TOTEN  =      -301.55208745 eV

  energy without entropy =     -301.56592309  energy(sigma->0) =     -301.55669933


--------------------------------------------------------------------------------------------------------




--------------------------------------- Iteration      1(  13)  ---------------------------------------


    POTLOK:  cpu time    0.9537: real time    0.8782
    SETDIJ:  cpu time    0.0729: real time    0.0461
    EDDIAG:  cpu time   48.7296: real time   24.4404
  RMM-DIIS:  cpu time  192.9609: real time   96.7510
    ORTHCH:  cpu time    7.0183: real time    3.5179
       DOS:  cpu time    0.1300: real time    0.0652
    CHARGE:  cpu time    7.1885: real time    7.0000
    MIXING:  cpu time    0.0506: real time    0.0254
    --------------------------------------------
      LOOP:  cpu time  257.1046: real time  132.7240

 eigenvalue-minimisations  : 13857
 total energy-change (2. order) :-0.1210372E+01  (-0.9886282E-01)
 number of electron     660.9999647 magnetization      54.5876802
 augmentation part      271.4383294 magnetization      37.8978209

 DIPCOR: dipole corrections for dipol
 direction  3 min pos     1,
 dipolmoment           0.000000      0.000000     -0.379228 electrons x Angstroem
 Tr[quadrupol]    -13743.545765

 energy correction for charged system         0.000000 eV
 dipol+quadrupol energy correction           -0.003596 eV
 added-field ion interaction          2.162191 eV  (added to PSCEN)


 Broyden mixing:
  rms(total) = 0.11172E+01    rms(broyden)= 0.11171E+01
  rms(prec ) = 0.12488E+01
  weight for this iteration     100.00

 eigenvalues of (default mixing * dielectric matrix)
  average eigenvalue GAMMA=   0.6510
  1.9799  0.8930  0.8930  0.6383  0.2844  0.1414  0.1890  0.1890

 Free energy of the ion-electron system (eV)
  ---------------------------------------------------
  alpha Z        PSCENC =       778.38125084
  Ewald energy   TEWEN  =    384998.84206780
  -Hartree energ DENC   =   -438862.79362587
  -exchange      EXHF   =         0.00000000
  -V(xc)+E(xc)   XCENC  =     -1777.60210153
  PAW double counting   =     62327.84348467   -58497.50444344
  entropy T*S    EENTRO =         0.03315925
  eigenvalues    EBANDS =     -2272.48730142
  atomic energy  EATOM  =     53002.52505022
  Solvation  Ediel_sol  =         0.00000000
  ---------------------------------------------------
  free energy    TOTEN  =      -302.76245948 eV

  energy without entropy =     -302.79561872  energy(sigma->0) =     -302.77351256


--------------------------------------------------------------------------------------------------------




--------------------------------------- Iteration      1(  14)  ---------------------------------------


    POTLOK:  cpu time    0.9297: real time    0.8549
    SETDIJ:  cpu time    0.0731: real time    0.0463
    EDDIAG:  cpu time   48.6066: real time   24.3741
  RMM-DIIS:  cpu time  192.5620: real time   96.5648
    ORTHCH:  cpu time    7.0007: real time    3.5090
[...]
   -.164E+03 0.149E+03 -.239E+04   0.164E+03 -.149E+03 0.238E+04   0.125E+00 -.989E-01 0.157E+01   0.298E-01 0.461E-01 0.135E-01
   -.158E+03 -.162E+03 -.242E+04   0.158E+03 0.162E+03 0.241E+04   0.230E+00 0.284E+00 0.183E+01   0.331E-01 0.597E-02 -.565E-02
   -.269E+02 -.430E+02 -.254E+04   0.270E+02 0.430E+02 0.254E+04   -.610E-01 0.801E-01 0.324E+01   0.297E-01 -.426E-01 0.102E-01
   -.549E+01 0.258E+02 -.255E+04   0.553E+01 -.258E+02 0.255E+04   -.366E-01 -.570E-02 0.319E+01   -.481E-02 0.248E-03 0.217E-01
   -.212E+02 0.258E+02 -.253E+04   0.212E+02 -.259E+02 0.253E+04   -.283E-01 0.286E-01 0.319E+01   0.367E-02 0.528E-01 0.790E-03
   -.258E+02 -.331E+02 -.254E+04   0.258E+02 0.332E+02 0.253E+04   0.279E-01 -.144E-01 0.317E+01   0.217E-02 -.189E-02 -.215E-01
   -.879E+01 -.188E+02 -.255E+04   0.881E+01 0.189E+02 0.255E+04   -.167E-01 0.143E-02 0.319E+01   0.118E-02 -.512E-01 0.518E-02
 -----------------------------------------------------------------------------------------------
   -.316E+02 -.902E+01 0.258E+02   0.870E-12 0.185E-12 0.455E-12   0.316E+02 0.898E+01 -.279E+02   0.116E-01 0.434E-01 0.213E+01
 
 
 POSITION                                       TOTAL-FORCE (eV/Angst)
 -----------------------------------------------------------------------------------
      5.04994      3.56526     20.55026        -0.034879      0.016215      0.017164
      1.26744      4.16421     20.58534        -0.043307     -0.008854     -0.026992
      2.75676      3.61244     20.73625        -0.021691      0.012884     -0.020641
      1.73632      2.90430     19.47680        -0.028053      0.008546      0.017695
      4.22807      4.12529     18.84707        -0.017239      0.004571     -0.003965
      4.26699      4.12670     20.35127        -0.034430      0.015544      0.000396
      1.77625      3.32715     20.69436        -0.037150      0.001769     -0.030762
      1.37251      1.37244     12.07341        -0.000186     -0.011449      0.016685
      1.37257      4.11893     12.07385        -0.008706     -0.008547      0.016275
      1.37258      6.86442     12.07493         0.009077     -0.006167      0.020771
      1.37256      9.60878     12.07456        -0.014404     -0.009206      0.020299
      4.11842      1.37258     12.07304         0.009161     -0.025094      0.016473
      4.11840      4.11911     12.07313         0.013051     -0.011169     -0.005817
      4.11847      6.86474     12.07440         0.010710      0.021729      0.008063
      4.11850      9.60902     12.07435         0.009037     -0.013121      0.015742
      6.86415      1.37246     12.07346         0.026890      0.004514      0.018587
      6.86434      4.11909     12.07330         0.051520     -0.015440      0.019429
      6.86438      6.86482     12.07471         0.035476      0.020513      0.000316
      6.86414      9.60905     12.07490         0.034917     -0.015160     -0.001623
      9.60916      1.37238     12.07395         0.012498     -0.019868      0.013354
      9.60942      4.11890     12.07415         0.016932     -0.004476      0.024365
      9.60946      6.86441     12.07545         0.022879      0.009000      0.009819
      9.60916      9.60880     12.07521         0.026445      0.001377     -0.037873
      0.00446     10.97976     14.03436         0.000035      0.000381     -0.000965
      0.00825      2.74018     14.03175        -0.002885     -0.000230     -0.003281
      0.01040      5.49157     14.03406         0.000626      0.001210      0.000979
      0.00815      8.23208     14.03647        -0.002010     -0.000551     -0.002615
      2.74604     10.97710     14.02799        -0.000736      0.000799     -0.003918
      2.74635      2.73722     14.02494        -0.001469      0.000732     -0.004809
      2.75019      5.49163     14.02540        -0.002627      0.001622     -0.005945
      2.74857      8.23152     14.03160        -0.001821      0.002044      0.002185
      5.50236     10.97868     14.02527         0.004316      0.000304      0.001427
      5.50358      2.73929     14.02468        -0.004386      0.001291     -0.002205
      5.50701      5.49630     14.01860         0.006472      0.002511     -0.003762
      5.50308      8.23575     14.03173        -0.003153      0.001352     -0.001858
      8.24295     10.98096     14.03152         0.000265      0.002879     -0.005237
      8.24826      2.73969     14.03253        -0.004706      0.003553     -0.000418
      8.24957      5.49474     14.03011        -0.000453     -0.002254     -0.000978
      8.24585      8.23639     14.03185        -0.003632      0.000239      0.000761
      1.39269      1.37617     16.00437         0.001203      0.001774     -0.002978
      1.38035      4.11279     15.98416         0.000599     -0.004145     -0.002545
      1.40683      6.83953     16.01416         0.000262     -0.001775      0.000736
      1.38300      9.60124     15.98523         0.002909     -0.003100      0.001901
      4.12646      1.35248     15.96842         0.004021     -0.001417     -0.004895
      4.13508      4.11657     15.91101        -0.000199     -0.001261     -0.005951
      4.13571      6.86743     15.97661         0.001300     -0.000112     -0.004751
      4.12681      9.60430     15.97696         0.002120     -0.001580     -0.004762
      6.86416      1.38347     16.00604         0.001305      0.006367      0.000057
      6.89957      4.11945     15.97062        -0.001578     -0.000331      0.002105
      6.86815      6.84839     16.00265         0.001880     -0.002175     -0.000367
      6.87205      9.60832     15.98347         0.003530      0.000566     -0.001323
      9.62549      1.37282     15.99136         0.000017      0.002769     -0.004362
      9.63571      4.11214     15.98679        -0.000773      0.000293     -0.003209
      9.62857      6.85731     15.98824         0.001720     -0.000463     -0.003448
      9.61991      9.60678     15.98367         0.000372      0.000197     -0.004045
      0.00861     10.97120     17.94527        -0.002054      0.001540     -0.004784
      0.03833      2.74133     17.98400        -0.004548     -0.002254     -0.005066
      0.02977      5.48166     17.96225        -0.001367     -0.005040     -0.001248
      0.01377      8.22896     17.94395        -0.005870      0.001246     -0.005425
      2.75816     10.96444     17.94902         0.000963      0.005956     -0.003891
      2.75827      2.72368     17.97905        -0.004203      0.005420     -0.006690
      2.78988      5.47207     17.99996        -0.004867      0.003516     -0.005825
      2.76256      8.23059     17.94706         0.001389      0.001940      0.003065
      5.49968     10.97411     17.94653        -0.000717      0.002218     -0.004986
      5.51019      2.73888     17.95505        -0.004869      0.003238      0.001268
      5.53031      5.49001     17.98526        -0.004947      0.001949      0.004060
      5.50491      8.23957     17.94538        -0.004324      0.000214     -0.007784
      8.25048     10.97694     17.94101        -0.004350      0.000277     -0.005998
      8.27165      2.74508     17.94878         0.000189      0.001658      0.000767
      8.27643      5.48643     17.94843        -0.004245     -0.000844      0.000387
      8.25305      8.23578     17.93630         0.002748     -0.000634      0.002867
 -----------------------------------------------------------------------------------
    total drift:                                0.008013     -0.000229      0.000276


--------------------------------------------------------------------------------------------------------



  FREE ENERGIE OF THE ION-ELECTRON SYSTEM (eV)
  ---------------------------------------------------
  free  energy   TOTEN  =      -372.06606799 eV

  energy  without entropy=     -371.93997873  energy(sigma->0) =     -372.02403823
 
 d Force = 0.3369954E-03[ 0.329E-03, 0.345E-03]  d Energy = 0.3464187E-03-0.942E-05
 d Force =-0.3263532E+01[-0.326E+01,-0.326E+01]  d Ewald  =-0.3263532E+01 0.343E-08


--------------------------------------------------------------------------------------------------------


    POTLOK:  cpu time    0.7962: real time    0.7724


--------------------------------------------------------------------------------------------------------


 NEB: the previous image is higher in energy: F
 NEB: the next image is higher in energy    : F
 NEB: image is at an extrema
 NEB: diff energy (min, max):     0.359607    1.741303

 NEB: Tangent
 ----------------------------------------------
     -0.06397     -0.32267      0.08781
     -0.19943     -0.13201     -0.27589
      0.35936      0.28099     -0.31637
      0.22894      0.13254      0.37062
     -0.01968      0.00225     -0.12154
      0.07928     -0.11187      0.04749
      0.18554     -0.10194     -0.38758
     -0.00024     -0.00001      0.00052
     -0.00030      0.00016      0.00021
     -0.00028      0.00029      0.00052
     -0.00024      0.00013      0.00082
     -0.00012      0.00005      0.00065
     -0.00012      0.00016      0.00046
     -0.00019      0.00027      0.00064
     -0.00019      0.00014      0.00083
     -0.00016      0.00017      0.00086
     -0.00022      0.00018      0.00079
     -0.00022      0.00020      0.00083
     -0.00019      0.00019      0.00090
     -0.00029      0.00009      0.00072
     -0.00039      0.00017      0.00056
     -0.00031      0.00024      0.00070
     -0.00026      0.00014      0.00088
     -0.00086     -0.00089     -0.00000
     -0.00024      0.00035     -0.00183
     -0.00084      0.00159     -0.00082
     -0.00065      0.00087      0.00080
      0.00060     -0.00023     -0.00092
      0.00319      0.00212      0.00056
      0.00064      0.00107      0.00093
     -0.00009      0.00052      0.00070
      0.00118     -0.00022      0.00096
      0.00166      0.00046      0.00049
      0.00073     -0.00030      0.00156
      0.00010      0.00014     -0.00023
      0.00047      0.00109      0.00443
     -0.00105      0.00031      0.00068
      0.00079     -0.00073      0.00438
     -0.00041      0.00030      0.00067
     -0.00086     -0.00230     -0.00694
     -0.00199      0.00358     -0.00659
     -0.00281      0.00424     -0.00036
      0.00024      0.00178      0.00270
      0.00460     -0.00137     -0.00177
      0.00680      0.00324      0.00976
      0.00117      0.00294      0.00101
      0.00016      0.00068      0.00026
      0.00210      0.00126      0.00420
      0.00041     -0.00105      0.00586
      0.00087      0.00050      0.00225
      0.00057     -0.00024      0.00219
      0.00259      0.00148      0.00220
      0.00081     -0.00031      0.00163
     -0.00077      0.00083      0.00187
      0.00061      0.00023      0.00327
      0.00367      0.00630      0.00326
      0.01883      0.00156     -0.00814
     -0.00087     -0.00327      0.00434
      0.00005      0.00000      0.00298
      0.00017      0.00738      0.00131
     -0.02077     -0.00409     -0.03028
     -0.01327      0.01071     -0.00131
      0.00031      0.00491      0.00292
      0.00027     -0.00185      0.00175
      0.00725     -0.00836      0.02369
      0.00578      0.00848      0.01402
     -0.00053      0.00280      0.00301
      0.00333      0.00087      0.00226
      0.00937     -0.00068      0.00500
      0.00376     -0.00042      0.00293
     -0.00055      0.00033      0.00345

 NEB: forces: par spring, perp REAL, dneb     4.741669    0.108261    0.000000
 NEB: distance to prev, next image, angle between     1.541149    2.489483   97.168088
 NEB: projections on to tangent (spring, REAL)     4.741669    0.020872

 stress matrix after NEB project (eV)
    -39.87955      0.15332     -1.89622
      0.15332    -39.71493      0.55324
     -1.89622      0.55324     -6.26154
  FORCES: max atom, RMS     0.047587    0.013085
  FORCE total and by dimension    0.110254    0.044895
  Stress total and by dimension   56.698429   39.879555
 Quasi-Newton relaxation of ions (Broydens 2nd method)
  g(Force)  = 0.718E-03   g(Stress)= 0.000E+00

 retain information from N=  1 steps
 eigenvalues of (default step * inverse Hessian matrix)
  average eigenvalue of G=   0.9807
 eigenvalue spectrum of G is  0.9807


--------------------------------------------------------------------------------------------------------


  
 reached required accuracy - stopping structural energy minimisation
     LOOP+:  cpu time 1292.8795: real time  741.8478
    4ORBIT:  cpu time    0.0000: real time    0.0000
 


 total charge     
 
# of ion       s       p       d       tot
------------------------------------------
    1        0.607   0.109   0.000   0.716
    2        0.597   0.108   0.000   0.705
    3        0.546   0.105   0.000   0.651
    4        0.424   0.045   0.000   0.469
    5        1.288   2.196   0.000   3.484
    6        1.604   3.483   0.000   5.087
    7        1.598   3.606   0.000   5.205
    8        0.446   0.307   8.521   9.274
    9        0.444   0.308   8.522   9.274
   10        0.446   0.308   8.521   9.274
   11        0.444   0.307   8.521   9.272
   12        0.444   0.308   8.523   9.274
   13        0.445   0.307   8.521   9.273
   14        0.444   0.308   8.522   9.275
   15        0.445   0.306   8.523   9.274
   16        0.446   0.308   8.521   9.274
   17        0.444   0.307   8.523   9.274
   18        0.445   0.309   8.521   9.275
   19        0.444   0.309   8.521   9.273
   20        0.444   0.307   8.521   9.272
   21        0.445   0.305   8.523   9.273
   22        0.445   0.308   8.520   9.273
   23        0.442   0.307   8.524   9.274
   24        0.484   0.474   8.462   9.421
   25        0.485   0.478   8.459   9.422
   26        0.485   0.477   8.458   9.420
   27        0.484   0.474   8.462   9.420
   28        0.485   0.478   8.460   9.423
   29        0.487   0.481   8.458   9.426
   30        0.488   0.481   8.457   9.426
   31        0.485   0.477   8.459   9.421
   32        0.485   0.477   8.462   9.424
   33        0.487   0.480   8.457   9.424
   34        0.487   0.481   8.460   9.428
   35        0.485   0.478   8.460   9.423
   36        0.484   0.474   8.465   9.422
   37        0.484   0.477   8.458   9.420
   38        0.485   0.477   8.459   9.421
   39        0.484   0.474   8.464   9.421
   40        0.486   0.475   8.459   9.420
   41        0.482   0.469   8.469   9.420
   42        0.487   0.474   8.457   9.418
   43        0.485   0.475   8.457   9.417
   44        0.485   0.470   8.476   9.430
   45        0.473   0.449   8.500   9.423
   46        0.482   0.471   8.468   9.421
   47        0.486   0.477   8.461   9.424
   48        0.488   0.475   8.460   9.423
   49        0.482   0.471   8.469   9.421
   50        0.488   0.475   8.460   9.423
   51        0.485   0.476   8.457   9.417
   52        0.484   0.473   8.459   9.416
   53        0.485   0.474   8.462   9.422
   54        0.484   0.474   8.457   9.415
   55        0.488   0.478   8.455   9.422
   56        0.444   0.308   8.521   9.273
   57        0.451   0.327   8.524   9.302
   58        0.451   0.313   8.524   9.288
   59        0.445   0.309   8.520   9.274
   60        0.446   0.310   8.523   9.280
   61        0.480   0.447   8.523   9.450
   62        0.447   0.394   8.504   9.345
   63        0.447   0.309   8.523   9.279
   64        0.447   0.310   8.524   9.281
   65        0.469   0.425   8.502   9.396
   66        0.461   0.416   8.503   9.380
   67        0.447   0.309   8.524   9.280
   68        0.446   0.309   8.520   9.274
   69        0.447   0.308   8.524   9.278
   70        0.448   0.310   8.523   9.280
   71        0.446   0.310   8.519   9.275
--------------------------------------------------
tot         36.513  35.176 543.433 615.123
 


 magnetization (x)
 
# of ion       s       p       d       tot
------------------------------------------
    1       -0.000  -0.000   0.000  -0.000
    2        0.000  -0.000   0.000   0.000
    3        0.000  -0.000   0.000  -0.000
    4       -0.001  -0.000   0.000  -0.001
    5        0.001  -0.006   0.000  -0.004
    6       -0.000  -0.000   0.000  -0.000
    7       -0.000  -0.001   0.000  -0.001
    8       -0.001  -0.003   0.218   0.214
    9       -0.001  -0.003   0.221   0.217
   10       -0.001  -0.004   0.216   0.212
   11       -0.001  -0.003   0.221   0.217
   12       -0.001  -0.003   0.220   0.216
   13        0.000  -0.003   0.224   0.220
   14       -0.001  -0.003   0.220   0.216
   15       -0.001  -0.004   0.207   0.203
   16       -0.001  -0.003   0.216   0.212
   17       -0.001  -0.003   0.218   0.214
   18       -0.000  -0.004   0.221   0.217
   19       -0.001  -0.003   0.226   0.223
   20       -0.001  -0.003   0.220   0.216
   21       -0.001  -0.004   0.205   0.200
   22       -0.001  -0.003   0.220   0.216
   23        0.002  -0.004   0.233   0.231
   24       -0.002  -0.006   0.306   0.299
   25       -0.002  -0.006   0.312   0.304
   26       -0.002  -0.006   0.308   0.300
   27       -0.002  -0.006   0.305   0.298
   28       -0.002  -0.006   0.309   0.301
   29       -0.002  -0.006   0.310   0.303
   30       -0.002  -0.006   0.306   0.299
   31       -0.002  -0.006   0.310   0.303
   32       -0.002  -0.006   0.311   0.303
   33       -0.002  -0.006   0.303   0.295
   34       -0.002  -0.006   0.309   0.301
   35       -0.002  -0.006   0.312   0.304
   36       -0.002  -0.006   0.308   0.301
   37       -0.002  -0.006   0.307   0.299
   38       -0.002  -0.006   0.308   0.301
   39       -0.002  -0.006   0.310   0.302
   40       -0.002  -0.006   0.264   0.256
   41       -0.001  -0.005   0.287   0.281
   42       -0.002  -0.006   0.262   0.254
   43       -0.002  -0.006   0.298   0.291
   44       -0.002  -0.005   0.281   0.274
   45       -0.001  -0.005   0.252   0.246
   46       -0.002  -0.005   0.292   0.285
   47       -0.002  -0.006   0.302   0.294
   48       -0.002  -0.006   0.253   0.245
   49       -0.002  -0.005   0.285   0.278
   50       -0.002  -0.006   0.263   0.255
   51       -0.002  -0.006   0.303   0.295
   52       -0.002  -0.006   0.298   0.291
   53       -0.002  -0.006   0.295   0.287
   54       -0.002  -0.006   0.299   0.292
   55       -0.001  -0.006   0.306   0.299
   56       -0.000  -0.003   0.203   0.200
   57       -0.001  -0.004   0.158   0.154
   58       -0.001  -0.003   0.182   0.178
   59       -0.000  -0.003   0.203   0.200
   60       -0.000  -0.003   0.191   0.187
   61       -0.002  -0.004   0.064   0.058
   62       -0.001  -0.003   0.086   0.082
   63       -0.000  -0.003   0.195   0.191
   64       -0.000  -0.003   0.191   0.187
   65       -0.001  -0.003   0.074   0.069
   66       -0.001  -0.003   0.074   0.069
   67       -0.000  -0.003   0.194   0.190
   68       -0.000  -0.003   0.207   0.204
   69       -0.000  -0.003   0.189   0.186
   70       -0.000  -0.003   0.193   0.189
   71       -0.001  -0.003   0.209   0.205
--------------------------------------------------
tot         -0.073  -0.299  15.595  15.224
 

 total amount of memory used by VASP MPI-rank0   758230. kBytes
=======================================================================

   base      :      30000. kBytes
   nonlr-proj:      11100. kBytes
   fftplans  :      25316. kBytes
   grid      :      72092. kBytes
   one-center:        186. kBytes
   wavefun   :     619536. kBytes
 
  
  
 General timing and accounting informations for this job:
 ========================================================
  
                  Total CPU time used (sec):    15680.817
                            User time (sec):    15229.383
                          System time (sec):      451.434
                         Elapsed time (sec):     8560.242
  
                   Maximum memory used (kb):     1242836.
                   Average memory used (kb):           0.
  
                          Minor page faults:      1944547
                          Major page faults:            7
                 Voluntary context switches:       167562
