 vasp.5.4.4.18Apr17-6-g9f103f2a35 (build May 01 2020 14:57:12) complex          
  
 executed on             LinuxIFC date 2021.09.03  10:41:20
 running on   24 total cores
 distrk:  each k-point on   24 cores,    1 groups
 distr:  one band on NCORES_PER_BAND=   1 cores,   24 groups


--------------------------------------------------------------------------------------------------------


 INCAR:
 POTCAR:    PAW_PBE Pd 04Jan2005                  
 POTCAR:    PAW_PBE N 08Apr2002                   
 POTCAR:    PAW_PBE O 08Apr2002                   

 ----------------------------------------------------------------------------- 
|                                                                             |
|           W    W    AA    RRRRR   N    N  II  N    N   GGGG   !!!           |
|           W    W   A  A   R    R  NN   N  II  NN   N  G    G  !!!           |
|           W    W  A    A  R    R  N N  N  II  N N  N  G       !!!           |
|           W WW W  AAAAAA  RRRRR   N  N N  II  N  N N  G  GGG   !            |
|           WW  WW  A    A  R   R   N   NN  II  N   NN  G    G                |
|           W    W  A    A  R    R  N    N  II  N    N   GGGG   !!!           |
|                                                                             |
|      For optimal performance we recommend to set                            |
|        NCORE= 4 - approx SQRT( number of cores)                             |
|      NCORE specifies how many cores store one orbital (NPAR=cpu/NCORE).     |
|      This setting can  greatly improve the performance of VASP for DFT.     |
|      The default,   NCORE=1            might be grossly inefficient         |
|      on modern multi-core architectures or massively parallel machines.     |
|      Do your own testing !!!!                                               |
|      Unfortunately you need to use the default for GW and RPA calculations. |
|      (for HF NCORE is supported but not extensively tested yet)             |
|                                                                             |
 ----------------------------------------------------------------------------- 

 POTCAR:    PAW_PBE Pd 04Jan2005                  
   VRHFIN =Pd : s1 d9                                                           
   LEXCH  = PE                                                                  
   EATOM  =   809.7530 eV,   59.5152 Ry                                         
                                                                                
   TITEL  = PAW_PBE Pd 04Jan2005                                                
   LULTRA =        F    use ultrasoft PP ?                                      
   IUNSCR =        1    unscreen: 0-lin 1-nonlin 2-no                           
   RPACOR =    2.000    partial core radius                                     
   POMASS =  106.420; ZVAL   =   10.000    mass and valenz                      
   RCORE  =    2.600    outmost cutoff radius                                   
   RWIGS  =    2.710; RWIGS  =    1.434    wigner-seitz radius (au A)           
   ENMAX  =  250.925; ENMIN  =  188.194 eV                                      
   ICORE  =        3    local potential                                         
   LCOR   =        T    correct aug charges                                     
   LPAW   =        T    paw PP                                                  
   EAUG   =  416.230                                                            
   DEXC   =    0.000                                                            
   RMAX   =    2.653    core radius for proj-oper                               
   RAUG   =    1.300    factor for augmentation sphere                          
   RDEP   =    2.734    radius for radial grids                                 
   RDEPT  =    2.103    core radius for aug-charge                              
                                                                                
   Atomic configuration                                                         
   12 entries                                                                   
     n  l   j            E        occ.                                          
     1  0  0.50    -24164.6631   2.0000                                         
     2  0  0.50     -3530.9218   2.0000                                         
     2  1  1.50     -3165.6822   6.0000                                         
     3  0  0.50      -639.4577   2.0000                                         
     3  1  1.50      -519.4532   6.0000                                         
     3  2  2.50      -328.9757  10.0000                                         
     4  0  0.50       -88.7014   2.0000                                         
     4  1  1.50       -54.4540   6.0000                                         
     4  2  2.50        -6.6878   9.0000                                         
     5  0  0.50        -4.3543   1.0000                                         
     5  1  0.50        -1.3606   0.0000                                         
     4  3  2.50        -1.3606   0.0000                                         
   Description                                                                  
     l       E           TYP  RCUT    TYP  RCUT                                 
     2     -6.6878251     23  2.400                                             
     2     -8.0484077     23  2.400                                             
     0     -4.3542939     23  2.400                                             
     0      4.3406793     23  2.400                                             
     1     -4.0817478     23  2.600                                             
     1     15.8380318     23  2.600                                             
     3     -4.0817478     23  2.400                                             
  local pseudopotential read in
  partial core-charges read in
  partial kinetic energy density read in
  atomic valenz-charges read in
  non local Contribution for L=           2  read in
    real space projection operators read in
  non local Contribution for L=           2  read in
    real space projection operators read in
  non local Contribution for L=           0  read in
    real space projection operators read in
  non local Contribution for L=           0  read in
    real space projection operators read in
  non local Contribution for L=           1  read in
    real space projection operators read in
  non local Contribution for L=           1  read in
    real space projection operators read in
    PAW grid and wavefunctions read in
 
   number of l-projection  operators is LMAX  =           6
   number of lm-projection operators is LMMAX =          18
 
 POTCAR:    PAW_PBE N 08Apr2002                   
   VRHFIN =N: s2p3                                                              
   LEXCH  = PE                                                                  
   EATOM  =   264.5486 eV,   19.4438 Ry                                         
                                                                                
   TITEL  = PAW_PBE N 08Apr2002                                                 
   LULTRA =        F    use ultrasoft PP ?                                      
   IUNSCR =        1    unscreen: 0-lin 1-nonlin 2-no                           
   RPACOR =    1.200    partial core radius                                     
   POMASS =   14.001; ZVAL   =    5.000    mass and valenz                      
   RCORE  =    1.500    outmost cutoff radius                                   
   RWIGS  =    1.400; RWIGS  =    0.741    wigner-seitz radius (au A)           
   ENMAX  =  400.000; ENMIN  =  300.000 eV                                      
   ICORE  =        2    local potential                                         
   LCOR   =        T    correct aug charges                                     
   LPAW   =        T    paw PP                                                  
   EAUG   =  627.112                                                            
   DEXC   =    0.000                                                            
   RMAX   =    1.529    core radius for proj-oper                               
   RAUG   =    1.300    factor for augmentation sphere                          
   RDEP   =    1.514    radius for radial grids                                 
   RDEPT  =    1.338    core radius for aug-charge                              
                                                                                
   Atomic configuration                                                         
    4 entries                                                                   
     n  l   j            E        occ.                                          
     1  0  0.50      -384.7179   2.0000                                         
     2  0  0.50       -18.5828   2.0000                                         
     2  1  0.50        -7.0898   3.0000                                         
     3  2  1.50        -6.8029   0.0000                                         
   Description                                                                  
     l       E           TYP  RCUT    TYP  RCUT                                 
     0    -18.5828119     23  1.200                                             
     0    -13.5018863     23  1.200                                             
     1     -7.0897853     23  1.500                                             
     1      9.5240782     23  1.500                                             
     2     -6.8029130      7  1.500                                             
  local pseudopotential read in
  partial core-charges read in
  partial kinetic energy density read in
  atomic valenz-charges read in
  non local Contribution for L=           0  read in
    real space projection operators read in
  non local Contribution for L=           0  read in
    real space projection operators read in
  non local Contribution for L=           1  read in
    real space projection operators read in
  non local Contribution for L=           1  read in
    real space projection operators read in
    PAW grid and wavefunctions read in
 
   number of l-projection  operators is LMAX  =           4
   number of lm-projection operators is LMMAX =           8
 
 POTCAR:    PAW_PBE O 08Apr2002                   
   VRHFIN =O: s2p4                                                              
   LEXCH  = PE                                                                  
   EATOM  =   432.3788 eV,   31.7789 Ry                                         
                                                                                
   TITEL  = PAW_PBE O 08Apr2002                                                 
   LULTRA =        F    use ultrasoft PP ?                                      
   IUNSCR =        1    unscreen: 0-lin 1-nonlin 2-no                           
   RPACOR =    1.200    partial core radius                                     
   POMASS =   16.000; ZVAL   =    6.000    mass and valenz                      
   RCORE  =    1.520    outmost cutoff radius                                   
   RWIGS  =    1.550; RWIGS  =    0.820    wigner-seitz radius (au A)           
   ENMAX  =  400.000; ENMIN  =  300.000 eV                                      
   ICORE  =        2    local potential                                         
   LCOR   =        T    correct aug charges                                     
   LPAW   =        T    paw PP                                                  
   EAUG   =  605.392                                                            
   DEXC   =    0.000                                                            
   RMAX   =    1.553    core radius for proj-oper                               
   RAUG   =    1.300    factor for augmentation sphere                          
   RDEP   =    1.550    radius for radial grids                                 
   RDEPT  =    1.329    core radius for aug-charge                              
                                                                                
   Atomic configuration                                                         
    4 entries                                                                   
     n  l   j            E        occ.                                          
     1  0  0.50      -514.6923   2.0000                                         
     2  0  0.50       -23.9615   2.0000                                         
     2  1  0.50        -9.0305   4.0000                                         
     3  2  1.50        -9.5241   0.0000                                         
   Description                                                                  
     l       E           TYP  RCUT    TYP  RCUT                                 
     0    -23.9615318     23  1.200                                             
     0     -9.5240782     23  1.200                                             
     1     -9.0304911     23  1.520                                             
     1      8.1634956     23  1.520                                             
     2     -9.5240782      7  1.500                                             
  local pseudopotential read in
  partial core-charges read in
  partial kinetic energy density read in
  kinetic energy density of atom read in
  atomic valenz-charges read in
  non local Contribution for L=           0  read in
    real space projection operators read in
  non local Contribution for L=           0  read in
    real space projection operators read in
  non local Contribution for L=           1  read in
    real space projection operators read in
  non local Contribution for L=           1  read in
    real space projection operators read in
    PAW grid and wavefunctions read in
 
   number of l-projection  operators is LMAX  =           4
   number of lm-projection operators is LMMAX =           8
 
 Optimization of the real space projectors (new method)

 maximal supplied QI-value         = 14.36
 optimisation between [QCUT,QGAM] = [ 10.20, 20.39] = [ 29.12,116.47] Ry 
 Optimized for a Real-space Cutoff    1.55 Angstroem

   l    n(q)    QCUT    max X(q) W(low)/X(q) W(high)/X(q)  e(spline) 
   2      9    10.197    59.108    0.12E-03    0.40E-04    0.11E-06
   2      9    10.197    58.101    0.12E-03    0.39E-04    0.12E-06
   0      9    10.197   102.235    0.41E-04    0.86E-05    0.83E-07
   0      9    10.197    58.388    0.37E-04    0.79E-05    0.78E-07
   1      9    10.197    22.191    0.25E-03    0.13E-03    0.84E-07
   1      9    10.197    15.590    0.21E-03    0.11E-03    0.74E-07
 Optimization of the real space projectors (new method)

 maximal supplied QI-value         = 25.13
 optimisation between [QCUT,QGAM] = [ 10.05, 20.36] = [ 28.30,116.06] Ry 
 Optimized for a Real-space Cutoff    1.70 Angstroem

   l    n(q)    QCUT    max X(q) W(low)/X(q) W(high)/X(q)  e(spline) 
   0     10    10.053    79.467    0.61E-04    0.98E-04    0.61E-06
   0     10    10.053    66.151    0.60E-04    0.98E-04    0.61E-06
   1     10    10.053     8.350    0.17E-03    0.71E-03    0.45E-05
   1     10    10.053     5.531    0.18E-03    0.77E-03    0.49E-05
 Optimization of the real space projectors (new method)

 maximal supplied QI-value         = 24.76
 optimisation between [QCUT,QGAM] = [ 10.15, 20.30] = [ 28.85,115.39] Ry 
 Optimized for a Real-space Cutoff    1.51 Angstroem

   l    n(q)    QCUT    max X(q) W(low)/X(q) W(high)/X(q)  e(spline) 
   0      9    10.150    20.381    0.17E-03    0.18E-03    0.41E-06
   0      9    10.150    15.268    0.18E-03    0.20E-03    0.43E-06
   1      9    10.150     5.964    0.16E-03    0.20E-03    0.36E-06
   1      9    10.150     5.382    0.13E-03    0.16E-03    0.33E-06
  PAW_PBE Pd 04Jan2005                  :
 energy of atom  1       EATOM= -809.7530
 kinetic energy error for atom=    0.0091 (will be added to EATOM!!)
  PAW_PBE N 08Apr2002                   :
 energy of atom  2       EATOM= -264.5486
 kinetic energy error for atom=    0.0736 (will be added to EATOM!!)
  PAW_PBE O 08Apr2002                   :
 energy of atom  3       EATOM= -432.3788
 kinetic energy error for atom=    0.1156 (will be added to EATOM!!)
 
 
 POSCAR: Pd N O                                  
  positions in direct lattice
  velocities in cartesian coordinates
 exchange correlation table for  LEXCH =        8
   RHO(1)=    0.500       N(1)  =     2000
   RHO(2)=  100.500       N(2)  =     4000
 


--------------------------------------------------------------------------------------------------------


 ion  position               nearest neighbor table
   1  0.125  0.125  0.403-   2 2.75   5 2.75   4 2.75  13 2.75  18 2.75  22 2.75  21 2.76  17 2.76

   2  0.125  0.375  0.403-   1 2.75   3 2.75   6 2.75  14 2.75  18 2.75  22 2.75  19 2.76  23 2.76

   3  0.125  0.625  0.403-   2 2.75   4 2.75   7 2.75  15 2.75  24 2.75  20 2.76  19 2.76  23 2.76

   4  0.125  0.875  0.403-   3 2.75   8 2.75   1 2.75  16 2.75  21 2.75  17 2.75  24 2.76  20 2.76

   5  0.375  0.125  0.403-   1 2.75   6 2.75   9 2.75   8 2.75  22 2.75  25 2.75  21 2.76  26 2.76

   6  0.375  0.375  0.403-   2 2.75   5 2.75   7 2.75  10 2.75  22 2.75  23 2.75  26 2.75  27 2.76

   7  0.375  0.625  0.403-   3 2.75   6 2.75   8 2.75  11 2.75  28 2.75  24 2.75  23 2.75  27 2.76

   8  0.375  0.875  0.403-   4 2.75   7 2.75  12 2.75   5 2.75  25 2.75  21 2.75  28 2.76  24 2.76

   9  0.625  0.125  0.403-   5 2.75  10 2.75  13 2.75  12 2.75  25 2.75  29 2.75  30 2.76  26 2.76

  10  0.625  0.375  0.403-   6 2.75   9 2.75  11 2.75  14 2.75  26 2.75  30 2.75  27 2.75  31 2.76

  11  0.625  0.625  0.403-   7 2.75  10 2.75  12 2.75  15 2.75  28 2.75  32 2.75  27 2.75  31 2.76

  12  0.625  0.875  0.403-   8 2.75  11 2.75  16 2.75   9 2.75  25 2.75  29 2.75  28 2.76  32 2.76

  13  0.875  0.125  0.403-   9 2.75  14 2.75   1 2.75  16 2.75  18 2.75  29 2.75  30 2.76  17 2.76

  14  0.875  0.375  0.403-  10 2.75  13 2.75  15 2.75   2 2.75  30 2.75  18 2.75  19 2.75  31 2.76

  15  0.875  0.625  0.403-  11 2.75  14 2.75  16 2.75   3 2.75  32 2.75  20 2.75  19 2.76  31 2.76

  16  0.875  0.875  0.403-  12 2.75  15 2.75  13 2.75   4 2.75  17 2.75  29 2.75  32 2.76  20 2.76

  17  1.000  1.000  0.468-  33 2.74  29 2.74  21 2.74  48 2.75  20 2.75  18 2.75  45 2.75  36 2.75
                            16 2.75   4 2.75  13 2.76   1 2.76
  18  0.000  0.250  0.468-  34 2.74  30 2.75  19 2.75  22 2.75  17 2.75  45 2.75  33 2.75   1 2.75
                            13 2.75   2 2.75  14 2.75  46 2.76
  19  1.000  0.500  0.468-  20 2.74  31 2.74  35 2.75  18 2.75  34 2.75  46 2.75  14 2.75  15 2.76
                            23 2.76   2 2.76   3 2.76  47 2.76
  20  1.000  0.749  0.468-  19 2.74  32 2.74  48 2.74  35 2.74  36 2.75  17 2.75  24 2.75  15 2.75
                             3 2.76  16 2.76   4 2.76  47 2.78
  21  0.250  0.999  0.468-  37 2.74  17 2.74  33 2.74  24 2.75  25 2.75  40 2.75  36 2.75   4 2.75
                            22 2.75   8 2.75   1 2.76   5 2.76
  22  0.250  0.250  0.468-  34 2.74  37 2.74  23 2.75  26 2.75  18 2.75   5 2.75   6 2.75  21 2.75
                             1 2.75   2 2.75  33 2.75  38 2.77
  23  0.251  0.500  0.468-  24 2.74  34 2.74  35 2.74  27 2.75  22 2.75  38 2.75   6 2.75   7 2.75
                            19 2.76  39 2.76   2 2.76   3 2.76
  24  0.250  0.749  0.468-  23 2.74  40 2.74  35 2.74  28 2.74  21 2.75  36 2.75  20 2.75   7 2.75
                             3 2.75   8 2.76   4 2.76  39 2.78
  25  0.500  1.000  0.468-  37 2.74  44 2.74  29 2.75  21 2.75  41 2.75  12 2.75   8 2.75  40 2.75
                            28 2.75  26 2.75   9 2.75   5 2.75
  26  0.500  0.250  0.468-  27 2.74  30 2.74  41 2.74  22 2.75  37 2.75  38 2.75  10 2.75  25 2.75
                             6 2.75   9 2.76   5 2.76  42 2.77
  27  0.501  0.500  0.468-  31 2.74  26 2.74  28 2.74  23 2.75  39 2.75  38 2.75  10 2.75  11 2.75
                            43 2.75  42 2.76   6 2.76   7 2.76
  28  0.500  0.749  0.468-  27 2.74  24 2.74  40 2.74  44 2.75  32 2.75   7 2.75  11 2.75  25 2.75
                             8 2.76  12 2.76  43 2.76  39 2.76
  29  0.750  1.000  0.468-  41 2.74  17 2.74  44 2.74  25 2.75  45 2.75  48 2.75  30 2.75  16 2.75
                            32 2.75  13 2.75  12 2.75   9 2.75
  30  0.750  0.250  0.468-  31 2.74  41 2.74  26 2.74  18 2.75  45 2.75  29 2.75  46 2.75  14 2.75
                            10 2.75  13 2.76   9 2.76  42 2.77
  31  0.750  0.500  0.468-  27 2.74  30 2.74  32 2.74  19 2.74  47 2.75  42 2.75  46 2.75  43 2.75
                            10 2.76  11 2.76  14 2.76  15 2.76
  32  0.750  0.749  0.468-  31 2.74  20 2.74  44 2.75  48 2.75  28 2.75  15 2.75  11 2.75  29 2.75
                            16 2.76  12 2.76  43 2.76  47 2.76
  33  0.125  0.124  0.533-  37 2.74  17 2.74  34 2.74  21 2.74  45 2.74  36 2.75  50 2.75  18 2.75
                            22 2.75  54 2.75  53 2.76  49 2.76
  34  0.125  0.374  0.533-  22 2.74  23 2.74  18 2.74  33 2.74  19 2.75  46 2.75  51 2.75  35 2.75
                            55 2.75  38 2.75  50 2.75  54 2.76
  35  0.125  0.625  0.533-  36 2.74  24 2.74  20 2.74  23 2.74  19 2.75  51 2.75  34 2.75  55 2.75
                            56 2.75  52 2.76  39 2.76  47 2.77
  36  0.125  0.874  0.533-  35 2.74  48 2.74  40 2.74  33 2.75  20 2.75  24 2.75  21 2.75  17 2.75
                            52 2.75  56 2.75  53 2.75  49 2.75
  37  0.375  0.124  0.532-  58 2.73  21 2.74  25 2.74  33 2.74  22 2.74  26 2.75  40 2.75  41 2.75
                            38 2.76  53 2.76  57 2.76  54 2.76
  38  0.376  0.375  0.533-  39 2.72  58 2.73  42 2.74  27 2.75  23 2.75  26 2.75  55 2.75  34 2.75
                            37 2.76  54 2.76  22 2.77  59 2.80
  39  0.377  0.623  0.534-  38 2.72  43 2.72  27 2.75  55 2.75  60 2.75  40 2.76  56 2.76  59 2.76
                            23 2.76  28 2.76  35 2.76  24 2.78
  40  0.375  0.874  0.533-  24 2.74  60 2.74  28 2.74  36 2.74  44 2.75  21 2.75  37 2.75  25 2.75
                            53 2.75  39 2.76  56 2.76  57 2.76
  41  0.625  0.125  0.533-  58 2.74  45 2.74  29 2.74  30 2.74  26 2.74  44 2.75  25 2.75  62 2.75
                            37 2.75  61 2.76  42 2.76  57 2.76
  42  0.626  0.376  0.534-  43 2.73  38 2.74  46 2.74  58 2.75  31 2.75  41 2.76  27 2.76  62 2.77
                            30 2.77  26 2.77  63 2.82  59 2.82
  43  0.625  0.625  0.534-  39 2.72  47 2.73  42 2.73  44 2.75  27 2.75  60 2.75  31 2.75  28 2.76
                            32 2.76  64 2.77  63 2.77  59 2.81
  44  0.625  0.875  0.533-  25 2.74  29 2.74  28 2.75  32 2.75  40 2.75  41 2.75  48 2.75  64 2.75
                            60 2.75  43 2.75  57 2.76  61 2.76
  45  0.875  0.125  0.533-  46 2.74  41 2.74  62 2.74  33 2.74  29 2.75  17 2.75  18 2.75  48 2.75
                            30 2.75  61 2.75  49 2.76  50 2.76
  46  0.875  0.375  0.533-  47 2.73  45 2.74  42 2.74  34 2.75  30 2.75  19 2.75  31 2.75  50 2.75
                            51 2.75  18 2.76  62 2.77  63 2.80
  47  0.873  0.623  0.534-  63 2.71  43 2.73  46 2.73  31 2.75  51 2.75  52 2.76  48 2.76  32 2.76
                            64 2.76  19 2.76  35 2.77  20 2.78
  48  0.875  0.875  0.533-  20 2.74  64 2.74  36 2.74  17 2.75  32 2.75  44 2.75  29 2.75  45 2.75
                            49 2.75  52 2.76  61 2.76  47 2.76
  49  1.000  1.000  0.598-  52 2.74  50 2.74  61 2.75  53 2.75  36 2.75  48 2.75  33 2.76  45 2.76

  50  0.001  0.249  0.598-  54 2.73  49 2.74  51 2.74  33 2.75  62 2.75  34 2.75  46 2.75  45 2.76

  51  0.002  0.499  0.598-  55 2.71  63 2.73  50 2.74  35 2.75  34 2.75  47 2.75  52 2.75  46 2.75

  52  0.000  0.750  0.598-  56 2.74  49 2.74  36 2.75  64 2.75  51 2.75  47 2.76  48 2.76  35 2.76

  53  0.250  0.999  0.598-  54 2.74  56 2.74  57 2.74  49 2.75  36 2.75  40 2.75  33 2.76  37 2.76

  54  0.250  0.249  0.598-  50 2.73  58 2.74  53 2.74  55 2.74  33 2.75  34 2.76  37 2.76  38 2.76

  55  0.249  0.499  0.598-  51 2.71  59 2.73  54 2.74  39 2.75  38 2.75  34 2.75  35 2.75  56 2.75

  56  0.250  0.750  0.598-  52 2.74  53 2.74  60 2.75  55 2.75  36 2.75  35 2.75  40 2.76  39 2.76

  57  0.500  0.000  0.598-  58 2.72  60 2.72  61 2.74  53 2.74  44 2.76  37 2.76  40 2.76  41 2.76

  58  0.499  0.248  0.597-  57 2.72  37 2.73  38 2.73  54 2.74  41 2.74  42 2.75  62 2.76  59 2.79

  59  0.498  0.502  0.601-  66 2.15  55 2.73  60 2.75  39 2.76  58 2.79  38 2.80  43 2.81  63 2.81
                            42 2.82
  60  0.500  0.752  0.598-  57 2.72  64 2.74  40 2.74  44 2.75  39 2.75  56 2.75  59 2.75  43 2.75

  61  0.750  0.000  0.598-  64 2.71  62 2.71  57 2.74  49 2.75  45 2.75  41 2.76  48 2.76  44 2.76

  62  0.751  0.247  0.598-  61 2.71  45 2.74  41 2.75  50 2.75  58 2.76  42 2.77  46 2.77  63 2.84

  63  0.754  0.506  0.600-  68 2.15  47 2.71  64 2.72  51 2.73  43 2.77  46 2.80  59 2.81  42 2.82
                            62 2.84
  64  0.750  0.753  0.598-  61 2.71  63 2.72  60 2.74  48 2.74  44 2.75  52 2.75  47 2.76  43 2.77

  65  0.630  0.423  0.687-  67 1.23  66 1.29  68 1.31
  66  0.532  0.468  0.670-  65 1.29  59 2.15
  67  0.631  0.382  0.725-  65 1.23
  68  0.731  0.419  0.663-  65 1.31  63 2.15
 
  LATTYP: Found a simple tetragonal cell.
 ALAT       =    10.9820000000
 C/A-ratio  =     2.7317428519
  
  Lattice vectors:
  
 A1 = (  10.9820000000,   0.0000000000,   0.0000000000)
 A2 = (   0.0000000000,  10.9820000000,   0.0000000000)
 A3 = (   0.0000000000,   0.0000000000,  30.0000000000)


Analysis of symmetry for initial positions (statically):
=====================================================================
 Subroutine PRICEL returns:
 Original cell was already a primitive cell.
 

 Routine SETGRP: Setting up the symmetry group for a 
 simple tetragonal supercell.


 Subroutine GETGRP returns: Found  1 space group operations
 (whereof  1 operations were pure point group operations)
 out of a pool of 16 trial point group operations.


The static configuration has the point symmetry C_1 .


Analysis of symmetry for dynamics (positions and initial velocities):
=====================================================================
 Subroutine PRICEL returns:
 Original cell was already a primitive cell.
 

 Routine SETGRP: Setting up the symmetry group for a 
 simple tetragonal supercell.


 Subroutine GETGRP returns: Found  1 space group operations
 (whereof  1 operations were pure point group operations)
 out of a pool of 16 trial point group operations.


The dynamic configuration has the point symmetry C_1 .


Analysis of constrained symmetry for selective dynamics:
=====================================================================
 Subroutine PRICEL returns:
 Original cell was already a primitive cell.
 

 Routine SETGRP: Setting up the symmetry group for a 
 simple tetragonal supercell.


 Subroutine GETGRP returns: Found  1 space group operations
 (whereof  1 operations were pure point group operations)
 out of a pool of 16 trial point group operations.


The constrained configuration has the point symmetry C_1 .


Analysis of structural, dynamic, and magnetic symmetry:
=====================================================================
 Subroutine PRICEL returns:
 Original cell was already a primitive cell.
 

 Routine SETGRP: Setting up the symmetry group for a 
 simple tetragonal supercell.


 Subroutine GETGRP returns: Found  1 space group operations
 (whereof  1 operations were pure point group operations)
 out of a pool of 16 trial point group operations.


The magnetic configuration has the point symmetry C_1 .


 Subroutine INISYM returns: Found  1 space group operations
 (whereof  1 operations are pure point group operations),
 and found     1 'primitive' translations

 
 
 KPOINTS: K-Point Grid                            

Automatic generation of k-mesh.
Space group operators:
 irot       det(A)        alpha          n_x          n_y          n_z        tau_x        tau_y        tau_z
    1     1.000000     0.000001     1.000000     0.000000     0.000000     0.000000     0.000000     0.000000
 
 Subroutine IBZKPT returns following result:
 ===========================================
 
 Found      8 irreducible k-points:
 
 Following reciprocal coordinates:
            Coordinates               Weight
  0.125000  0.125000  0.000000      2.000000
  0.375000  0.125000  0.000000      2.000000
 -0.375000  0.125000  0.000000      2.000000
 -0.125000  0.125000  0.000000      2.000000
  0.125000  0.375000  0.000000      2.000000
  0.375000  0.375000  0.000000      2.000000
 -0.375000  0.375000  0.000000      2.000000
 -0.125000  0.375000  0.000000      2.000000
 
 Following cartesian coordinates:
            Coordinates               Weight
  0.011382  0.011382  0.000000      2.000000
  0.034147  0.011382  0.000000      2.000000
 -0.034147  0.011382  0.000000      2.000000
 -0.011382  0.011382  0.000000      2.000000
  0.011382  0.034147  0.000000      2.000000
  0.034147  0.034147  0.000000      2.000000
 -0.034147  0.034147  0.000000      2.000000
 -0.011382  0.034147  0.000000      2.000000
 


--------------------------------------------------------------------------------------------------------




 Dimension of arrays:
   k-points           NKPTS =      8   k-points in BZ     NKDIM =      8   number of bands    NBANDS=    432
   number of dos      NEDOS =   1200   number of ions     NIONS =     68
   non local maximal  LDIM  =      6   non local SUM 2l+1 LMDIM =     18
   total plane-waves  NPLWV = ******
   max r-space proj   IRMAX =   5807   max aug-charges    IRDMAX=  13820
   dimension x,y,z NGX =    72 NGY =   72 NGZ =  196
   dimension x,y,z NGXF=   144 NGYF=  144 NGZF=  392
   support grid    NGXF=   144 NGYF=  144 NGZF=  392
   ions per type =              64   1   3
   NGX,Y,Z   is equivalent  to a cutoff of  10.90, 10.90, 10.86 a.u.
   NGXF,Y,Z  is equivalent  to a cutoff of  21.80, 21.80, 21.72 a.u.

 SYSTEM =  Pd_100_surface                          
 POSCAR =  Pd N O                                  

 Startparameter for this run:
   NWRITE =      2    write-flag & timer
   PREC   = accura    normal or accurate (medium, high low for compatibility)
   ISTART =      0    job   : 0-new  1-cont  2-samecut
   ICHARG =      2    charge: 1-file 2-atom 10-const
   ISPIN  =      2    spin polarized calculation?
   LNONCOLLINEAR =      F non collinear calculations
   LSORBIT =      F    spin-orbit coupling
   INIWAV =      1    electr: 0-lowe 1-rand  2-diag
   LASPH  =      F    aspherical Exc in radial PAW
   METAGGA=      F    non-selfconsistent MetaGGA calc.

 Electronic Relaxation 1
   ENCUT  =  400.0 eV  29.40 Ry    5.42 a.u.  17.91 17.91 48.92*2*pi/ulx,y,z
   ENINI  =  400.0     initial cutoff
   ENAUG  =  627.1 eV  augmentation charge cutoff
   NELM   =    100;   NELMIN=  2; NELMDL=  0     # of ELM steps 
   EDIFF  = 0.1E-04   stopping-criterion for ELM
   LREAL  =      T    real-space projection
   NLSPLINE    = F    spline interpolate recip. space projectors
   LCOMPAT=      F    compatible to vasp.4.4
   GGA_COMPAT  = T    GGA compatible to vasp.4.4-vasp.4.6
   LMAXPAW     = -100 max onsite density
   LMAXMIX     =    2 max onsite mixed and CHGCAR
   VOSKOWN=      0    Vosko Wilk Nusair interpolation
   ROPT   =   -0.00025  -0.00025  -0.00025
 Ionic relaxation
   EDIFFG = -.2E-01   stopping-criterion for IOM
   NSW    =    100    number of steps for IOM
   NBLOCK =      1;   KBLOCK =    100    inner block; outer block 
   IBRION =      2    ionic relax: 0-MD 1-quasi-New 2-CG
   NFREE  =      1    steps in history (QN), initial steepest desc. (CG)
   ISIF   =      2    stress and relaxation
   IWAVPR =     11    prediction:  0-non 1-charg 2-wave 3-comb
   ISYM   =      2    0-nonsym 1-usesym 2-fastsym
   LCORR  =      T    Harris-Foulkes like correction to forces

   POTIM  = 0.5000    time-step for ionic-motion
   TEIN   =    0.0    initial temperature
   TEBEG  =    0.0;   TEEND  =   0.0 temperature during run
   SMASS  =  -3.00    Nose mass-parameter (am)
   estimated Nose-frequenzy (Omega)   =  0.10E-29 period in steps =****** mass=  -0.276E-26a.u.
   SCALEE = 1.0000    scale energy and forces
   NPACO  =    256;   APACO  = 16.0  distance and # of slots for P.C.
   PSTRESS=    0.0 pullay stress

  Mass of Ions in am
   POMASS = 106.42 14.00 16.00
  Ionic Valenz
   ZVAL   =  10.00  5.00  6.00
  Atomic Wigner-Seitz radii
   RWIGS  =  -1.00 -1.00 -1.00
  virtual crystal weights 
   VCA    =   1.00  1.00  1.00
   NELECT =     663.0000    total number of electrons
   NUPDOWN=      -1.0000    fix difference up-down

 DOS related values:
   EMIN   =  10.00;   EMAX   =-10.00  energy-range for DOS
   EFERMI =   0.00
   ISMEAR =     1;   SIGMA  =   0.20  broadening in eV -4-tet -1-fermi 0-gaus

 Electronic relaxation 2 (details)
   IALGO  =     68    algorithm
   LDIAG  =      T    sub-space diagonalisation (order eigenvalues)
   LSUBROT=      F    optimize rotation matrix (better conditioning)
   TURBO    =      0    0=normal 1=particle mesh
   IRESTART =      0    0=no restart 2=restart with 2 vectors
   NREBOOT  =      0    no. of reboots
   NMIN     =      0    reboot dimension
   EREF     =   0.00    reference energy to select bands
   IMIX   =      4    mixing-type and parameters
     AMIX     =   0.40;   BMIX     =  1.00
     AMIX_MAG =   1.60;   BMIX_MAG =  1.00
     AMIN     =   0.10
     WC   =   100.;   INIMIX=   1;  MIXPRE=   1;  MAXMIX= -45

 Intra band minimization:
   WEIMIN = 0.0010     energy-eigenvalue tresh-hold
   EBREAK =  0.58E-08  absolut break condition
   DEPER  =   0.30     relativ break condition  

   TIME   =   0.40     timestep for ELM

  volume/ion in A,a.u.               =      53.21       359.06
  Fermi-wavevector in a.u.,A,eV,Ry     =   0.929861  1.757182 11.764158  0.864641
  Thomas-Fermi vector in A             =   2.056188
 
 Write flags
   LWAVE        =      F    write WAVECAR
   LDOWNSAMPLE  =      F    k-point downsampling of WAVECAR
   LCHARG       =      F    write CHGCAR
   LVTOT        =      F    write LOCPOT, total local potential
   LVHAR        =      F    write LOCPOT, Hartree potential only
   LELF         =      F    write electronic localiz. function (ELF)
   LORBIT       =     11    0 simple, 1 ext, 2 COOP (PROOUT), +10 PAW based schemes


 Dipole corrections
   LMONO  =      F    monopole corrections only (constant potential shift)
   LDIPOL =      T    correct potential (dipole corrections)
   IDIPOL =      3    1-x, 2-y, 3-z, 4-all directions 
   EPSILON=  1.0000000 bulk dielectric constant

 Exchange correlation treatment:
   GGA     =    --    GGA type
   LEXCH   =     8    internal setting for exchange type
   VOSKOWN=      0    Vosko Wilk Nusair interpolation
   LHFCALC =     F    Hartree Fock is set to
   LHFONE  =     F    Hartree Fock one center treatment
   AEXX    =    0.0000 exact exchange contribution

 Linear response parameters
   LEPSILON=     F    determine dielectric tensor
   LRPA    =     F    only Hartree local field effects (RPA)
   LNABLA  =     F    use nabla operator in PAW spheres
   LVEL    =     F    velocity operator in full k-point grid
   LINTERFAST=   F  fast interpolation
   KINTER  =     0    interpolate to denser k-point grid
   CSHIFT  =0.1000    complex shift for real part using Kramers Kronig
   OMEGAMAX=  -1.0    maximum frequency
   DEG_THRESHOLD= 0.2000000E-02 threshold for treating states as degnerate
   RTIME   =   -0.100 relaxation time in fs
  (WPLASMAI=    0.000 imaginary part of plasma frequency in eV, 0.658/RTIME)
   DFIELD  = 0.0000000 0.0000000 0.0000000 field for delta impulse in time
 
 Orbital magnetization related:
   ORBITALMAG=     F  switch on orbital magnetization
   LCHIMAG   =     F  perturbation theory with respect to B field
   DQ        =  0.001000  dq finite difference perturbation B field
   LLRAUG    =     F  two centre corrections for induced B field



--------------------------------------------------------------------------------------------------------


 conjugate gradient relaxation of ions
   using selective dynamics as specified on POSCAR
 charge density and potential will be updated during run
 spin polarized calculation
 RMM-DIIS sequential band-by-band and
  variant of blocked Davidson during initial phase
 perform sub-space diagonalisation
    before iterative eigenvector-optimisation
 modified Broyden-mixing scheme, WC =      100.0
 initial mixing is a Kerker type mixing with AMIX =  0.4000 and BMIX =      1.0000
 Hartree-type preconditioning will be used
 using additional bands          100
 real space projection scheme for non local part
 use partial core corrections
 calculate Harris-corrections to forces 
   (improved forces if not selfconsistent)
 use gradient corrections 
 use of overlap-Matrix (Vanderbilt PP)
 Methfessel and Paxton  Order N= 1 SIGMA  =   0.20


--------------------------------------------------------------------------------------------------------


  energy-cutoff  :      400.00
  volume of cell :     3618.13
      direct lattice vectors                 reciprocal lattice vectors
    10.982000000  0.000000000  0.000000000     0.091058095  0.000000000  0.000000000
     0.000000000 10.982000000  0.000000000     0.000000000  0.091058095  0.000000000
     0.000000000  0.000000000 30.000000000     0.000000000  0.000000000  0.033333333

  length of vectors
    10.982000000 10.982000000 30.000000000     0.091058095  0.091058095  0.033333333


 
 k-points in units of 2pi/SCALE and weight: K-Point Grid                            
   0.01138226  0.01138226  0.00000000       0.125
   0.03414679  0.01138226  0.00000000       0.125
  -0.03414679  0.01138226  0.00000000       0.125
  -0.01138226  0.01138226  0.00000000       0.125
   0.01138226  0.03414679  0.00000000       0.125
   0.03414679  0.03414679  0.00000000       0.125
  -0.03414679  0.03414679  0.00000000       0.125
  -0.01138226  0.03414679  0.00000000       0.125
 
 k-points in reciprocal lattice and weights: K-Point Grid                            
   0.12500000  0.12500000  0.00000000       0.125
   0.37500000  0.12500000  0.00000000       0.125
  -0.37500000  0.12500000  0.00000000       0.125
  -0.12500000  0.12500000  0.00000000       0.125
   0.12500000  0.37500000  0.00000000       0.125
   0.37500000  0.37500000  0.00000000       0.125
  -0.37500000  0.37500000  0.00000000       0.125
  -0.12500000  0.37500000  0.00000000       0.125
 
 position of ions in fractional coordinates (direct lattice) 
   0.12499955  0.12499955  0.40293227
   0.12499955  0.37499864  0.40293227
   0.12499955  0.62499774  0.40293227
   0.12499955  0.87499683  0.40293227
   0.37499864  0.12499955  0.40293227
   0.37499864  0.37499864  0.40293227
   0.37499864  0.62499774  0.40293227
   0.37499864  0.87499683  0.40293227
   0.62499774  0.12499955  0.40293227
   0.62499774  0.37499864  0.40293227
   0.62499774  0.62499774  0.40293227
   0.62499774  0.87499683  0.40293227
   0.87499683  0.12499955  0.40293227
   0.87499683  0.37499864  0.40293227
   0.87499683  0.62499774  0.40293227
   0.87499683  0.87499683  0.40293227
   0.99995291  0.99958511  0.46804064
   0.00005335  0.24984687  0.46789356
   0.99966344  0.49995735  0.46816674
   0.99971226  0.74937956  0.46821256
   0.24985041  0.99944211  0.46800703
   0.25018571  0.24990436  0.46786184
   0.25069216  0.49985912  0.46822630
   0.25015195  0.74934029  0.46813348
   0.50000139  0.99986796  0.46792824
   0.50023982  0.25048034  0.46808243
   0.50064741  0.49986379  0.46814775
   0.49992132  0.74929191  0.46806119
   0.75011639  0.99994493  0.46797700
   0.75004970  0.25040888  0.46801322
   0.74972119  0.49979527  0.46826351
   0.75008154  0.74933576  0.46809725
   0.12496539  0.12443063  0.53270312
   0.12533851  0.37428965  0.53259441
   0.12521349  0.62468030  0.53281465
   0.12493704  0.87437223  0.53289995
   0.37466297  0.12449359  0.53246704
   0.37596974  0.37545841  0.53320998
   0.37695208  0.62324800  0.53371626
   0.37488592  0.87425936  0.53274272
   0.62535722  0.12506117  0.53260047
   0.62550249  0.37592327  0.53374524
   0.62491928  0.62466847  0.53350519
   0.62490594  0.87498832  0.53257617
   0.87503423  0.12501583  0.53282376
   0.87509186  0.37453769  0.53318006
   0.87320896  0.62346595  0.53373041
   0.87501991  0.87465318  0.53279310
   0.99998109  0.99954433  0.59797009
   0.00127551  0.24932631  0.59795170
   0.00191104  0.49918948  0.59793578
   0.00022503  0.74983914  0.59803714
   0.25015173  0.99943201  0.59787267
   0.24978845  0.24913651  0.59792160
   0.24888597  0.49905680  0.59797405
   0.24973420  0.74965097  0.59806366
   0.50001719  0.00003851  0.59784060
   0.49882098  0.24769020  0.59716788
   0.49769469  0.50190087  0.60101738
   0.50008144  0.75218021  0.59802745
   0.74982280  0.00010439  0.59790896
   0.75054249  0.24693953  0.59833196
   0.75368765  0.50574206  0.59990579
   0.74974837  0.75328075  0.59825472
   0.63047098  0.42274537  0.68709583
   0.53215708  0.46820353  0.67030854
   0.63101978  0.38210498  0.72515704
   0.73065711  0.41886438  0.66343000
 
 position of ions in cartesian coordinates  (Angst):
   1.37274503  1.37274503 12.08796804
   1.37274503  4.11823509 12.08796804
   1.37274503  6.86372514 12.08796804
   1.37274503  9.60921520 12.08796804
   4.11823509  1.37274503 12.08796804
   4.11823509  4.11823509 12.08796804
   4.11823509  6.86372514 12.08796804
   4.11823509  9.60921520 12.08796804
   6.86372514  1.37274503 12.08796804
   6.86372514  4.11823509 12.08796804
   6.86372514  6.86372514 12.08796804
   6.86372514  9.60921520 12.08796804
   9.60921520  1.37274503 12.08796804
   9.60921520  4.11823509 12.08796804
   9.60921520  6.86372514 12.08796804
   9.60921520  9.60921520 12.08796804
  10.98148281 10.97744370 14.04121917
   0.00058586  2.74381827 14.03680668
  10.97830385  5.49053162 14.04500226
  10.97884000  8.22968632 14.04637673
   2.74385719 10.97587320 14.04021090
   2.74753944  2.74444973 14.03585535
   2.75310135  5.48945281 14.04678897
   2.74716875  8.22925503 14.04400426
   5.49101521 10.98054994 14.03784726
   5.49363366  2.75077511 14.04247293
   5.49810989  5.48950410 14.04443258
   5.49013594  8.22872378 14.04183565
   8.23777814 10.98139517 14.03930996
   8.23704582  2.74999029 14.04039646
   8.23343811  5.48875169 14.04790518
   8.23739551  8.22920536 14.04291757
   1.37236995  1.36649715 15.98109370
   1.37646749  4.11044889 15.97783225
   1.37509456  6.86023905 15.98443959
   1.37205855  9.60235586 15.98699860
   4.11454878  1.36718859 15.97401120
   4.12889968  4.12328422 15.99629929
   4.13968777  6.84450955 16.01148771
   4.11699723  9.60111629 15.98228154
   6.86767296  1.37342182 15.97801421
   6.86926832  4.12838935 16.01235708
   6.86286351  6.86010914 16.00515578
   6.86271703  9.60912174 15.97728505
   9.60962595  1.37292380 15.98471267
   9.61025881  4.11317287 15.99540174
   9.58958075  6.84690305 16.01191243
   9.60946870  9.60544126 15.98379291
  10.98179231 10.97699585 17.93910256
   0.01400763  2.73810158 17.93855106
   0.02098700  5.48209884 17.93807348
   0.00247125  8.23473341 17.94111431
   2.74716635 10.97576238 17.93618004
   2.74317671  2.73601714 17.93764786
   2.73326571  5.48064176 17.93922152
   2.74258094  8.23266700 17.94190980
   5.49118880  0.00042297 17.93521806
   5.47805200  2.72013379 17.91503632
   5.46568309  5.51187539 18.03052131
   5.49189441  8.26044302 17.94082343
   8.23455399  0.00114642 17.93726891
   8.24245761  2.71188996 17.94995893
   8.27699777  5.55405933 17.99717374
   8.23373661  8.27252920 17.94764159
   6.92383231  4.64258965 20.61287476
   5.84414902  5.14181118 20.10925621
   6.92985924  4.19627689 21.75471123
   8.02407638  4.59996863 19.90290013
 


--------------------------------------------------------------------------------------------------------


 k-point  1 :   0.1250 0.1250 0.0000  plane waves:   65671
 k-point  2 :   0.3750 0.1250 0.0000  plane waves:   65719
 k-point  3 :  -0.3750 0.1250 0.0000  plane waves:   65719
 k-point  4 :  -0.1250 0.1250 0.0000  plane waves:   65671
 k-point  5 :   0.1250 0.3750 0.0000  plane waves:   65719
 k-point  6 :   0.3750 0.3750 0.0000  plane waves:   65776
 k-point  7 :  -0.3750 0.3750 0.0000  plane waves:   65776
 k-point  8 :  -0.1250 0.3750 0.0000  plane waves:   65719

 maximum and minimum number of plane-waves per node :     65776    65671

 maximum number of plane-waves:     65776
 maximum index in each direction: 
   IXMAX=   18   IYMAX=   17   IZMAX=   48
   IXMIN=  -18   IYMIN=  -18   IZMIN=  -48


 serial   3D FFT for wavefunctions
 parallel 3D FFT for charge:
    minimum data exchange during FFTs selected (reduces bandwidth)


 total amount of memory used by VASP MPI-rank0   519030. kBytes
=======================================================================

   base      :      30000. kBytes
   nonlr-proj:      51359. kBytes
   fftplans  :      15515. kBytes
   grid      :     111379. kBytes
   one-center:       2115. kBytes
   wavefun   :     308662. kBytes
 
     INWAV:  cpu time    0.0000: real time    0.0000
 Broyden mixing: mesh for mixing (old mesh)
   NGX = 35   NGY = 35   NGZ = 97
  (NGX  =144   NGY  =144   NGZ  =392)
  gives a total of 118825 points

 initial charge density was supplied:
 charge density of overlapping atoms calculated
 number of electron     663.0000000 magnetization      68.0000000
 keeping initial charge density in first step


--------------------------------------------------------------------------------------------------------


 Maximum index for non-local projection operator         5621
 Maximum index for augmentation-charges          679 (set IRDMAX)


--------------------------------------------------------------------------------------------------------


 First call to EWALD:  gamma=   0.115
 Maximum number of real-space cells 4x 4x 2
 Maximum number of reciprocal cells 2x 2x 5

    FEWALD:  cpu time    0.0313: real time    0.0278


--------------------------------------- Iteration      1(   1)  ---------------------------------------


    POTLOK:  cpu time    0.5961: real time    0.7644
    SETDIJ:  cpu time    0.1408: real time    0.1225
     EDDAV:  cpu time  154.3376: real time   77.5488
       DOS:  cpu time    0.2523: real time    0.2482
    --------------------------------------------
      LOOP:  cpu time  155.3269: real time   78.6839

 eigenvalue-minimisations  : 13824
 total energy-change (2. order) : 0.4052331E+04  (-0.2471485E+05)
 number of electron     663.0000000 magnetization      68.0000000
 augmentation part      663.0000000 magnetization      68.0000000

 DIPCOR: dipole corrections for dipol
 direction  3 min pos     1,
 dipolmoment           0.000000      0.000000     -0.000104 electrons x Angstroem
 Tr[quadrupol]    -14053.550660

 energy correction for charged system         0.000000 eV
 dipol+quadrupol energy correction           -0.000000 eV
 added-field ion interaction          0.000729 eV  (added to PSCEN)


 Free energy of the ion-electron system (eV)
  ---------------------------------------------------
  alpha Z        PSCENC =       781.03012363
  Ewald energy   TEWEN  =    383918.80492421
  -Hartree energ DENC   =   -437668.01209784
  -exchange      EXHF   =         0.00000000
  -V(xc)+E(xc)   XCENC  =     -1775.49722969
  PAW double counting   =     52869.48174551   -48894.24686804
  entropy T*S    EENTRO =        -0.00333537
  eigenvalues    EBANDS =      1435.90011618
  atomic energy  EATOM  =     53384.87371559
  Solvation  Ediel_sol  =         0.00000000
  ---------------------------------------------------
  free energy    TOTEN  =      4052.33109419 eV

  energy without entropy =     4052.33442956  energy(sigma->0) =     4052.33220598


--------------------------------------------------------------------------------------------------------




--------------------------------------- Iteration      1(   2)  ---------------------------------------


     EDDAV:  cpu time  176.6780: real time   88.5749
       DOS:  cpu time    0.0076: real time    0.0038
    --------------------------------------------
      LOOP:  cpu time  176.6856: real time   88.5786

 eigenvalue-minimisations  : 16344
 total energy-change (2. order) :-0.4119700E+04  (-0.3792434E+04)
 number of electron     663.0000000 magnetization      68.0000000
 augmentation part      663.0000000 magnetization      68.0000000

 DIPCOR: dipole corrections for dipol
 direction  3 min pos     1,
 dipolmoment           0.000000      0.000000     -0.000104 electrons x Angstroem
 Tr[quadrupol]    -14053.550660

 energy correction for charged system         0.000000 eV
 dipol+quadrupol energy correction           -0.000000 eV
 added-field ion interaction          0.000729 eV  (added to PSCEN)


 Free energy of the ion-electron system (eV)
  ---------------------------------------------------
  alpha Z        PSCENC =       781.03012363
  Ewald energy   TEWEN  =    383918.80492421
  -Hartree energ DENC   =   -437668.01209784
  -exchange      EXHF   =         0.00000000
  -V(xc)+E(xc)   XCENC  =     -1775.49722969
  PAW double counting   =     52869.48174551   -48894.24686804
  entropy T*S    EENTRO =        -0.00098403
  eigenvalues    EBANDS =     -2683.80196461
  atomic energy  EATOM  =     53384.87371559
  Solvation  Ediel_sol  =         0.00000000
  ---------------------------------------------------
  free energy    TOTEN  =       -67.36863526 eV

  energy without entropy =      -67.36765123  energy(sigma->0) =      -67.36830725


--------------------------------------------------------------------------------------------------------




--------------------------------------- Iteration      1(   3)  ---------------------------------------


     EDDAV:  cpu time  173.2761: real time   86.8508
       DOS:  cpu time    0.0075: real time    0.0037
    --------------------------------------------
      LOOP:  cpu time  173.2836: real time   86.8546

 eigenvalue-minimisations  : 16104
 total energy-change (2. order) :-0.2754317E+03  (-0.2538121E+03)
 number of electron     663.0000000 magnetization      68.0000000
 augmentation part      663.0000000 magnetization      68.0000000

 DIPCOR: dipole corrections for dipol
 direction  3 min pos     1,
 dipolmoment           0.000000      0.000000     -0.000104 electrons x Angstroem
 Tr[quadrupol]    -14053.550660

 energy correction for charged system         0.000000 eV
 dipol+quadrupol energy correction           -0.000000 eV
 added-field ion interaction          0.000729 eV  (added to PSCEN)


 Free energy of the ion-electron system (eV)
  ---------------------------------------------------
  alpha Z        PSCENC =       781.03012363
  Ewald energy   TEWEN  =    383918.80492421
  -Hartree energ DENC   =   -437668.01209784
  -exchange      EXHF   =         0.00000000
  -V(xc)+E(xc)   XCENC  =     -1775.49722969
  PAW double counting   =     52869.48174551   -48894.24686804
  entropy T*S    EENTRO =         0.20549960
  eigenvalues    EBANDS =     -2959.44016663
  atomic energy  EATOM  =     53384.87371559
  Solvation  Ediel_sol  =         0.00000000
  ---------------------------------------------------
  free energy    TOTEN  =      -342.80035365 eV

  energy without entropy =     -343.00585325  energy(sigma->0) =     -342.86885352


--------------------------------------------------------------------------------------------------------




--------------------------------------- Iteration      1(   4)  ---------------------------------------


     EDDAV:  cpu time  170.0129: real time   85.2152
       DOS:  cpu time    0.0074: real time    0.0037
    --------------------------------------------
      LOOP:  cpu time  170.0203: real time   85.2189

 eigenvalue-minimisations  : 15720
 total energy-change (2. order) :-0.6576739E+01  (-0.6497354E+01)
 number of electron     663.0000000 magnetization      68.0000000
 augmentation part      663.0000000 magnetization      68.0000000

 DIPCOR: dipole corrections for dipol
 direction  3 min pos     1,
 dipolmoment           0.000000      0.000000     -0.000104 electrons x Angstroem
 Tr[quadrupol]    -14053.550660

 energy correction for charged system         0.000000 eV
 dipol+quadrupol energy correction           -0.000000 eV
 added-field ion interaction          0.000729 eV  (added to PSCEN)


 Free energy of the ion-electron system (eV)
  ---------------------------------------------------
  alpha Z        PSCENC =       781.03012363
  Ewald energy   TEWEN  =    383918.80492421
  -Hartree energ DENC   =   -437668.01209784
  -exchange      EXHF   =         0.00000000
  -V(xc)+E(xc)   XCENC  =     -1775.49722969
  PAW double counting   =     52869.48174551   -48894.24686804
  entropy T*S    EENTRO =         0.20852655
  eigenvalues    EBANDS =     -2966.01993250
  atomic energy  EATOM  =     53384.87371559
  Solvation  Ediel_sol  =         0.00000000
  ---------------------------------------------------
  free energy    TOTEN  =      -349.37709257 eV

  energy without entropy =     -349.58561912  energy(sigma->0) =     -349.44660142


--------------------------------------------------------------------------------------------------------




--------------------------------------- Iteration      1(   5)  ---------------------------------------


     EDDAV:  cpu time  188.5840: real time   95.1668
       DOS:  cpu time    0.0181: real time    0.0144
    CHARGE:  cpu time    5.7647: real time    5.4837
    MIXING:  cpu time    0.0493: real time    0.0372
    --------------------------------------------
      LOOP:  cpu time  194.4162: real time  100.7022

 eigenvalue-minimisations  : 17904
 total energy-change (2. order) :-0.2617047E+00  (-0.2613512E+00)
 number of electron     662.9999503 magnetization      65.6143777
 augmentation part      261.6762506 magnetization      51.5737258

 DIPCOR: dipole corrections for dipol
 direction  3 min pos     1,
 dipolmoment           0.000000      0.000000     -0.000104 electrons x Angstroem
 Tr[quadrupol]    -14053.550660

 energy correction for charged system         0.000000 eV
 dipol+quadrupol energy correction           -0.000000 eV
 added-field ion interaction          0.000729 eV  (added to PSCEN)


 Broyden mixing:
  rms(total) = 0.58968E+01    rms(broyden)= 0.58956E+01
  rms(prec ) = 0.59511E+01
  weight for this iteration     100.00

 Free energy of the ion-electron system (eV)
  ---------------------------------------------------
  alpha Z        PSCENC =       781.03012363
  Ewald energy   TEWEN  =    383918.80492421
  -Hartree energ DENC   =   -437668.01209784
  -exchange      EXHF   =         0.00000000
  -V(xc)+E(xc)   XCENC  =     -1775.49722969
  PAW double counting   =     52869.48174551   -48894.24686804
  entropy T*S    EENTRO =         0.20852072
  eigenvalues    EBANDS =     -2966.28163141
  atomic energy  EATOM  =     53384.87371559
  Solvation  Ediel_sol  =         0.00000000
  ---------------------------------------------------
  free energy    TOTEN  =      -349.63879731 eV

  energy without entropy =     -349.84731803  energy(sigma->0) =     -349.70830421


--------------------------------------------------------------------------------------------------------




--------------------------------------- Iteration      1(   6)  ---------------------------------------


    POTLOK:  cpu time    0.5792: real time    0.4946
    SETDIJ:  cpu time    0.0446: real time    0.0278
    EDDIAG:  cpu time   29.2207: real time   14.6583
  RMM-DIIS:  cpu time  101.9229: real time   51.5131
    ORTHCH:  cpu time    4.5753: real time    2.2946
       DOS:  cpu time    0.0072: real time    0.0036
    CHARGE:  cpu time    5.8311: real time    5.5317
    MIXING:  cpu time    0.0285: real time    0.0148
    --------------------------------------------
      LOOP:  cpu time  142.2095: real time   74.5386

 eigenvalue-minimisations  : 13889
 total energy-change (2. order) : 0.3355137E+02  (-0.7656468E+01)
 number of electron     662.9999487 magnetization      62.4561714
 augmentation part      271.6852359 magnetization      47.1669414

 DIPCOR: dipole corrections for dipol
 direction  3 min pos     1,
 dipolmoment           0.000000      0.000000      0.164986 electrons x Angstroem
 Tr[quadrupol]    -14057.887179

 energy correction for charged system         0.000000 eV
 dipol+quadrupol energy correction           -0.000681 eV
 added-field ion interaction         -1.151566 eV  (added to PSCEN)


 Broyden mixing:
  rms(total) = 0.31348E+01    rms(broyden)= 0.31345E+01
  rms(prec ) = 0.31668E+01
  weight for this iteration     100.00

 eigenvalues of (default mixing * dielectric matrix)
  average eigenvalue GAMMA=   1.0647
  1.0647

 Free energy of the ion-electron system (eV)
  ---------------------------------------------------
  alpha Z        PSCENC =       779.87714846
  Ewald energy   TEWEN  =    383918.80492421
  -Hartree energ DENC   =   -437456.30012412
  -exchange      EXHF   =         0.00000000
  -V(xc)+E(xc)   XCENC  =     -1775.11288905
  PAW double counting   =     56818.33215228   -52919.63979177
  entropy T*S    EENTRO =         0.11927797
  eigenvalues    EBANDS =     -3067.04183717
  atomic energy  EATOM  =     53384.87371559
  Solvation  Ediel_sol  =         0.00000000
  ---------------------------------------------------
  free energy    TOTEN  =      -316.08742360 eV

  energy without entropy =     -316.20670157  energy(sigma->0) =     -316.12718293


--------------------------------------------------------------------------------------------------------




--------------------------------------- Iteration      1(   7)  ---------------------------------------


    POTLOK:  cpu time    0.6187: real time    0.4970
    SETDIJ:  cpu time    0.0430: real time    0.0271
    EDDIAG:  cpu time   29.3564: real time   14.7147
  RMM-DIIS:  cpu time  100.8642: real time   50.8074
    ORTHCH:  cpu time    4.5979: real time    2.3060
       DOS:  cpu time    0.0077: real time    0.0039
    CHARGE:  cpu time    5.9580: real time    5.6554
    MIXING:  cpu time    0.0246: real time    0.0123
    --------------------------------------------
      LOOP:  cpu time  141.4705: real time   74.0238

 eigenvalue-minimisations  : 13874
 total energy-change (2. order) :-0.2457223E+00  (-0.2352259E+01)
 number of electron     662.9999474 magnetization      60.8600305
 augmentation part      270.9583966 magnetization      45.6040596

 DIPCOR: dipole corrections for dipol
 direction  3 min pos     1,
 dipolmoment           0.000000      0.000000      0.048549 electrons x Angstroem
 Tr[quadrupol]    -14067.058215

 energy correction for charged system         0.000000 eV
 dipol+quadrupol energy correction           -0.000059 eV
 added-field ion interaction         -0.338859 eV  (added to PSCEN)


 Broyden mixing:
  rms(total) = 0.32422E+01    rms(broyden)= 0.32419E+01
  rms(prec ) = 0.35616E+01
  weight for this iteration     100.00

 eigenvalues of (default mixing * dielectric matrix)
  average eigenvalue GAMMA=   0.9497
  1.4030  0.4963

 Free energy of the ion-electron system (eV)
  ---------------------------------------------------
  alpha Z        PSCENC =       780.69047719
  Ewald energy   TEWEN  =    383918.80492421
  -Hartree energ DENC   =   -437809.31856900
  -exchange      EXHF   =         0.00000000
  -V(xc)+E(xc)   XCENC  =     -1770.73888109
  PAW double counting   =     60040.23623150   -56177.08648482
  entropy T*S    EENTRO =        -0.04563069
  eigenvalues    EBANDS =     -2683.74892879
  atomic energy  EATOM  =     53384.87371559
  Solvation  Ediel_sol  =         0.00000000
  ---------------------------------------------------
  free energy    TOTEN  =      -316.33314591 eV

  energy without entropy =     -316.28751522  energy(sigma->0) =     -316.31793568


--------------------------------------------------------------------------------------------------------




--------------------------------------- Iteration      1(   8)  ---------------------------------------


    POTLOK:  cpu time    0.6260: real time    0.5010
    SETDIJ:  cpu time    0.0415: real time    0.0263
    EDDIAG:  cpu time   29.2398: real time   14.6558
  RMM-DIIS:  cpu time  100.9925: real time   50.8040
    ORTHCH:  cpu time    4.6135: real time    2.3138
       DOS:  cpu time    0.0075: real time    0.0037
    CHARGE:  cpu time    5.8721: real time    5.5727
    MIXING:  cpu time    0.0268: real time    0.0134
    --------------------------------------------
      LOOP:  cpu time  141.4196: real time   73.8906

 eigenvalue-minimisations  : 13849
 total energy-change (2. order) : 0.4749248E+01  (-0.2668059E+01)
 number of electron     662.9999501 magnetization      58.7194746
 augmentation part      272.0492819 magnetization      43.3460608

 DIPCOR: dipole corrections for dipol
 direction  3 min pos     1,
 dipolmoment           0.000000      0.000000     -0.196242 electrons x Angstroem
 Tr[quadrupol]    -14065.349388

 energy correction for charged system         0.000000 eV
 dipol+quadrupol energy correction           -0.000963 eV
 added-field ion interaction          1.369725 eV  (added to PSCEN)


 Broyden mixing:
  rms(total) = 0.31074E+01    rms(broyden)= 0.31070E+01
  rms(prec ) = 0.35127E+01
  weight for this iteration     100.00

 eigenvalues of (default mixing * dielectric matrix)
  average eigenvalue GAMMA=   0.9436
  1.8932  0.7253  0.2124

 Free energy of the ion-electron system (eV)
  ---------------------------------------------------
  alpha Z        PSCENC =       782.39815681
  Ewald energy   TEWEN  =    383918.80492421
  -Hartree energ DENC   =   -437721.31163150
  -exchange      EXHF   =         0.00000000
  -V(xc)+E(xc)   XCENC  =     -1766.41057527
  PAW double counting   =     61028.90649244   -57177.59185817
  entropy T*S    EENTRO =        -0.05703318
  eigenvalues    EBANDS =     -2761.19608909
  atomic energy  EATOM  =     53384.87371559
  Solvation  Ediel_sol  =         0.00000000
  ---------------------------------------------------
  free energy    TOTEN  =      -311.58389815 eV

  energy without entropy =     -311.52686497  energy(sigma->0) =     -311.56488709


--------------------------------------------------------------------------------------------------------




--------------------------------------- Iteration      1(   9)  ---------------------------------------


    POTLOK:  cpu time    0.6177: real time    0.4990
    SETDIJ:  cpu time    0.0418: real time    0.0266
    EDDIAG:  cpu time   29.2943: real time   14.6832
  RMM-DIIS:  cpu time  100.8714: real time   50.8474
    ORTHCH:  cpu time    4.5857: real time    2.2999
       DOS:  cpu time    0.0077: real time    0.0038
    CHARGE:  cpu time    5.9619: real time    5.6610
    MIXING:  cpu time    0.0260: real time    0.0130
    --------------------------------------------
      LOOP:  cpu time  141.4064: real time   74.0339

 eigenvalue-minimisations  : 13857
 total energy-change (2. order) :-0.1938466E+02  (-0.1235348E+01)
 number of electron     662.9999438 magnetization      57.1637587
 augmentation part      270.7247990 magnetization      43.9676002

 DIPCOR: dipole corrections for dipol
 direction  3 min pos     1,
 dipolmoment           0.000000      0.000000      1.357739 electrons x Angstroem
 Tr[quadrupol]    -14067.220288

 energy correction for charged system         0.000000 eV
 dipol+quadrupol energy correction           -0.046098 eV
 added-field ion interaction         -9.476702 eV  (added to PSCEN)


 Broyden mixing:
  rms(total) = 0.54161E+01    rms(broyden)= 0.54159E+01
  rms(prec ) = 0.68409E+01
  weight for this iteration     100.00

 eigenvalues of (default mixing * dielectric matrix)
  average eigenvalue GAMMA=   0.8292
  2.1904  0.7894  0.1686  0.1686

 Free energy of the ion-electron system (eV)
  ---------------------------------------------------
  alpha Z        PSCENC =       771.50659539
  Ewald energy   TEWEN  =    383918.80492421
  -Hartree energ DENC   =   -437814.07511532
  -exchange      EXHF   =         0.00000000
  -V(xc)+E(xc)   XCENC  =     -1762.93242968
  PAW double counting   =     62062.49753976   -58223.02612492
  entropy T*S    EENTRO =        -0.01019391
  eigenvalues    EBANDS =     -2668.60746729
  atomic energy  EATOM  =     53384.87371559
  Solvation  Ediel_sol  =         0.00000000
  ---------------------------------------------------
  free energy    TOTEN  =      -330.96855616 eV

  energy without entropy =     -330.95836226  energy(sigma->0) =     -330.96515819


--------------------------------------------------------------------------------------------------------




--------------------------------------- Iteration      1(  10)  ---------------------------------------


    POTLOK:  cpu time    0.6286: real time    0.4746
    SETDIJ:  cpu time    0.0422: real time    0.0271
    EDDIAG:  cpu time   29.3051: real time   14.6889
  RMM-DIIS:  cpu time  100.9827: real time   50.9020
    ORTHCH:  cpu time    4.5730: real time    2.2934
       DOS:  cpu time    0.0081: real time    0.0040
    CHARGE:  cpu time    5.8685: real time    5.5706
    MIXING:  cpu time    0.0282: real time    0.0141
    --------------------------------------------
      LOOP:  cpu time  141.4362: real time   73.9748

 eigenvalue-minimisations  : 13856
 total energy-change (2. order) : 0.3261960E+02  (-0.9180769E+00)
 number of electron     662.9999498 magnetization      56.4181672
 augmentation part      272.3842270 magnetization      41.1216553

 DIPCOR: dipole corrections for dipol
 direction  3 min pos     1,
 dipolmoment           0.000000      0.000000     -0.189244 electrons x Angstroem
 Tr[quadrupol]    -14069.200920

 energy correction for charged system         0.000000 eV
 dipol+quadrupol energy correction           -0.000896 eV
 added-field ion interaction          1.320876 eV  (added to PSCEN)


 Broyden mixing:
  rms(total) = 0.29713E+01    rms(broyden)= 0.29710E+01
  rms(prec ) = 0.35723E+01
  weight for this iteration     100.00

 eigenvalues of (default mixing * dielectric matrix)
  average eigenvalue GAMMA=   0.7241
  2.2776  0.8094  0.2251  0.2251  0.0833

 Free energy of the ion-electron system (eV)
  ---------------------------------------------------
  alpha Z        PSCENC =       782.34937578
  Ewald energy   TEWEN  =    383918.80492421
  -Hartree energ DENC   =   -437872.85871906
  -exchange      EXHF   =         0.00000000
  -V(xc)+E(xc)   XCENC  =     -1759.24227304
  PAW double counting   =     62717.08763187   -58886.22767777
  entropy T*S    EENTRO =        -0.11690718
  eigenvalues    EBANDS =     -2583.01903157
  atomic energy  EATOM  =     53384.87371559
  Solvation  Ediel_sol  =         0.00000000
  ---------------------------------------------------
  free energy    TOTEN  =      -298.34896116 eV

  energy without entropy =     -298.23205398  energy(sigma->0) =     -298.30999210


--------------------------------------------------------------------------------------------------------




--------------------------------------- Iteration      1(  11)  ---------------------------------------


    POTLOK:  cpu time    0.6260: real time    0.4773
    SETDIJ:  cpu time    0.0416: real time    0.0264
    EDDIAG:  cpu time   29.3695: real time   14.7209
  RMM-DIIS:  cpu time  101.4168: real time   51.1944
    ORTHCH:  cpu time    4.5813: real time    2.2978
       DOS:  cpu time    0.0073: real time    0.0036
    CHARGE:  cpu time    5.7283: real time    5.4292
    MIXING:  cpu time    0.0287: real time    0.0144
    --------------------------------------------
      LOOP:  cpu time  141.7995: real time   74.1639

 eigenvalue-minimisations  : 13877
 total energy-change (2. order) : 0.4544954E+01  (-0.2699042E+00)
 number of electron     662.9999494 magnetization      55.5284167
 augmentation part      272.4487680 magnetization      38.9143506

 DIPCOR: dipole corrections for dipol
 direction  3 min pos     1,
 dipolmoment           0.000000      0.000000      0.143826 electrons x Angstroem
 Tr[quadrupol]    -14070.004194

 energy correction for charged system         0.000000 eV
 dipol+quadrupol energy correction           -0.000517 eV
 added-field ion interaction         -1.003876 eV  (added to PSCEN)


 Broyden mixing:
  rms(total) = 0.15441E+01    rms(broyden)= 0.15440E+01
  rms(prec ) = 0.16921E+01
  weight for this iteration     100.00

 eigenvalues of (default mixing * dielectric matrix)
  average eigenvalue GAMMA=   0.6617
  2.2532  0.7980  0.4228  0.2621  0.1444  0.0899

 Free energy of the ion-electron system (eV)
  ---------------------------------------------------
  alpha Z        PSCENC =       780.02500217
  Ewald energy   TEWEN  =    383918.80492421
  -Hartree energ DENC   =   -437906.93681288
  -exchange      EXHF   =         0.00000000
  -V(xc)+E(xc)   XCENC  =     -1760.69611977
  PAW double counting   =     62892.42799192   -59063.69544978
  entropy T*S    EENTRO =        -0.05851796
  eigenvalues    EBANDS =     -2538.54874023
  atomic energy  EATOM  =     53384.87371559
  Solvation  Ediel_sol  =         0.00000000
  ---------------------------------------------------
  free energy    TOTEN  =      -293.80400671 eV

  energy without entropy =     -293.74548876  energy(sigma->0) =     -293.78450073


--------------------------------------------------------------------------------------------------------




--------------------------------------- Iteration      1(  12)  ---------------------------------------


    POTLOK:  cpu time    0.6230: real time    0.4745
    SETDIJ:  cpu time    0.0431: real time    0.0280
    EDDIAG:  cpu time   29.0713: real time   14.5717
  RMM-DIIS:  cpu time  100.9061: real time   50.8306
    ORTHCH:  cpu time    4.5932: real time    2.3036
       DOS:  cpu time    0.0076: real time    0.0038
    CHARGE:  cpu time    5.8308: real time    5.5283
    MIXING:  cpu time    0.0298: real time    0.0149
    --------------------------------------------
      LOOP:  cpu time  141.1048: real time   73.7555

 eigenvalue-minimisations  : 13869
 total energy-change (2. order) :-0.8214206E+00  (-0.2919899E+00)
 number of electron     662.9999491 magnetization      54.0324067
 augmentation part      272.6073158 magnetization      37.9968851

 DIPCOR: dipole corrections for dipol
 direction  3 min pos     1,
 dipolmoment           0.000000      0.000000      0.128375 electrons x Angstroem
 Tr[quadrupol]    -14069.548052

 energy correction for charged system         0.000000 eV
 dipol+quadrupol energy correction           -0.000412 eV
 added-field ion interaction         -0.896027 eV  (added to PSCEN)


 Broyden mixing:
  rms(total) = 0.13405E+01    rms(broyden)= 0.13402E+01
  rms(prec ) = 0.14875E+01
  weight for this iteration     100.00

 eigenvalues of (default mixing * dielectric matrix)
  average eigenvalue GAMMA=   0.6332
  2.2705  0.8423  0.5188  0.3352  0.1896  0.1896  0.0862

 Free energy of the ion-electron system (eV)
  ---------------------------------------------------
  alpha Z        PSCENC =       780.13295569
  Ewald energy   TEWEN  =    383918.80492421
  -Hartree energ DENC   =   -437895.91174400
  -exchange      EXHF   =         0.00000000
  -V(xc)+E(xc)   XCENC  =     -1761.71017135
  PAW double counting   =     62857.26768998   -59027.13135007
  entropy T*S    EENTRO =        -0.00859738
  eigenvalues    EBANDS =     -2550.94284996
  atomic energy  EATOM  =     53384.87371559
  Solvation  Ediel_sol  =         0.00000000
  ---------------------------------------------------
  free energy    TOTEN  =      -294.62542728 eV

  energy without entropy =     -294.61682990  energy(sigma->0) =     -294.62256149


--------------------------------------------------------------------------------------------------------




--------------------------------------- Iteration      1(  13)  ---------------------------------------


    POTLOK:  cpu time    0.6260: real time    0.4807
    SETDIJ:  cpu time    0.0415: real time    0.0264
    EDDIAG:  cpu time   29.1298: real time   14.6013
  RMM-DIIS:  cpu time  101.2807: real time   51.3121
    ORTHCH:  cpu time    4.5755: real time    2.2948
       DOS:  cpu time    0.0076: real time    0.0038
    CHARGE:  cpu time    6.0467: real time    5.7431
    MIXING:  cpu time    0.0303: real time    0.0152
    --------------------------------------------
      LOOP:  cpu time  141.7382: real time   74.4776

 eigenvalue-minimisations  : 13884
 total energy-change (2. order) :-0.1900426E+01  (-0.1419354E+00)
 number of electron     662.9999486 magnetization      53.1694343
 augmentation part      271.9168425 magnetization      36.9763004

 DIPCOR: dipole corrections for dipol
 direction  3 min pos     1,
 dipolmoment           0.000000      0.000000      0.321330 electrons x Angstroem
 Tr[quadrupol]    -14071.392871

 energy correction for charged system         0.000000 eV
 dipol+quadrupol energy correction           -0.002582 eV
 added-field ion interaction         -2.242812 eV  (added to PSCEN)


 Broyden mixing:
  rms(total) = 0.10203E+01    rms(broyden)= 0.10202E+01
  rms(prec ) = 0.10909E+01
  weight for this iteration     100.00

 eigenvalues of (default mixing * dielectric matrix)
  average eigenvalue GAMMA=   0.6028
  2.2362  0.8271  0.5304  0.5304  0.2686  0.1716  0.1716  0.0861

 Free energy of the ion-electron system (eV)
  ---------------------------------------------------
  alpha Z        PSCENC =       778.78400100
  Ewald energy   TEWEN  =    383918.80492421
  -Hartree energ DENC   =   -437983.35506640
  -exchange      EXHF   =         0.00000000
  -V(xc)+E(xc)   XCENC  =     -1763.15166983
  PAW double counting   =     62954.30742019   -59123.79904497
  entropy T*S    EENTRO =         0.00728455
  eigenvalues    EBANDS =     -2462.99741775
  atomic energy  EATOM  =     53384.87371559
  Solvation  Ediel_sol  =         0.00000000
  ---------------------------------------------------
  free energy    TOTEN  =      -296.52585340 eV

  energy without entropy =     -296.53313795  energy(sigma->0) =     -296.52828158


--------------------------------------------------------------------------------------------------------




--------------------------------------- Iteration      1(  14)  ---------------------------------------


    POTLOK:  cpu time    0.6308: real time    0.4830
    SETDIJ:  cpu time    0.0417: real time    0.0264
    EDDIAG:  cpu time   29.2030: real time   14.6377
  RMM-DIIS:  cpu time  101.4609: real time   51.1788
    ORTHCH:  cpu time    4.5742: real time    2.2943
       DOS:  cpu time    0.0073: real time    0.0037
    CHARGE:  cpu time    5.8195: real time    5.5167
    MIXING:  cpu time    0.0333: real time    0.0167
    --------------------------------------------
      LOOP:  cpu time  141.7707: real time   74.1572

 eigenvalue-minimisations  : 13884
 total energy-change (2. order) :-0.2221367E+01  (-0.8007071E-01)
 number of electron     662.9999485 magnetization      51.1129683
 augmentation part      271.8270641 magnetization      35.1868853

 DIPCOR: dipole corrections for dipol
 direction  3 min pos     1,
 dipolmoment           0.000000      0.000000      0.295755 electrons x Angstroem
 Tr[quadrupol]    -14071.749360

 energy correction for charged system         0.000000 eV
 dipol+quadrupol energy correction           -0.002187 eV
 added-field ion interaction         -2.064305 eV  (added to PSCEN)


 Broyden mixing:
  rms(total) = 0.88739E+00    rms(broyden)= 0.88735E+00
  rms(prec ) = 0.93162E+00
  weight for this iteration     100.00

 eigenvalues of (default mixing * dielectric matrix)
  average eigenvalue GAMMA=   0.6411
  2.1640  0.9176  0.9176  0.7972  0.3050  0.2168  0.1830  0.1830  0.0862

 Free energy of the ion-electron system (eV)
  ---------------------------------------------------
  alpha Z        PSCENC =       778.96290290
  Ewald energy   TEWEN  =    383918.80492421
  -Hartree energ DENC   =   -437999.77901504
  -exchange      EXHF   =         0.00000000
  -V(xc)+E(xc)   XCENC  =     -1764.65173419
  PAW double counting   =     62918.64759299   -59086.96646048
  entropy T*S    EENTRO =         0.03435505
  eigenvalues    EBANDS =     -2448.67350153
  atomic energy  EATOM  =     53384.87371559
  Solvation  Ediel_sol  =         0.00000000
  ---------------------------------------------------
  free energy    TOTEN  =      -298.74722050 eV

  energy without entropy =     -298.78157555  energy(sigma->0) =     -298.75867218


--------------------------------------------------------------------------------------------------------




--------------------------------------- Iteration      1(  15)  ---------------------------------------


    POTLOK:  cpu time    0.6222: real time    0.4754
    SETDIJ:  cpu time    0.0415: real time    0.0263
    EDDIAG:  cpu time   29.1267: real time   14.6002
  RMM-DIIS:  cpu time  101.3444: real time   51.0931
    ORTHCH:  cpu time    4.5785: real time    2.2962
       DOS:  cpu time    0.0074: real time    0.0037
    CHARGE:  cpu time    5.9224: real time    5.6188
    MIXING:  cpu time    0.0350: real time    0.0176
    --------------------------------------------
      LOOP:  cpu time  141.6781: real time   74.1314

 eigenvalue-minimisations  : 13873
 total energy-change (2. order) :-0.5004074E+01  (-0.1592630E+00)
 number of electron     662.9999485 magnetization      48.5291842
 augmentation part      271.7595195 magnetization      33.4927586

 DIPCOR: dipole corrections for dipol
 direction  3 min pos     1,
 dipolmoment           0.000000      0.000000      0.379676 electrons x Angstroem
 Tr[quadrupol]    -14072.470430

 energy correction for charged system         0.000000 eV
 dipol+quadrupol energy correction           -0.003605 eV
 added-field ion interaction         -2.650051 eV  (added to PSCEN)


 Broyden mixing:
  rms(total) = 0.10942E+01    rms(broyden)= 0.10942E+01
  rms(prec ) = 0.12108E+01
  weight for this iteration     100.00

 eigenvalues of (default mixing * dielectric matrix)
  average eigenvalue GAMMA=   0.6663
  2.0945  1.2529  1.2529  0.8091  0.3130  0.3130  0.0861  0.1750  0.1750  0.1914

 Free energy of the ion-electron system (eV)
  ---------------------------------------------------
  alpha Z        PSCENC =       778.37573950
  Ewald energy   TEWEN  =    383918.80492421
  -Hartree energ DENC   =   -438031.33192913
  -exchange      EXHF   =         0.00000000
  -V(xc)+E(xc)   XCENC  =     -1767.37980596
  PAW double counting   =     62857.96432949   -59024.44506121
  entropy T*S    EENTRO =         0.03829526
  eigenvalues    EBANDS =     -2420.65150228
  atomic energy  EATOM  =     53384.87371559
  Solvation  Ediel_sol  =         0.00000000
  ---------------------------------------------------
  free energy    TOTEN  =      -303.75129452 eV

  energy without entropy =     -303.78958978  energy(sigma->0) =     -303.76405961


--------------------------------------------------------------------------------------------------------




--------------------------------------- Iteration      1(  16)  ---------------------------------------


    POTLOK:  cpu time    0.6173: real time    0.4806
    SETDIJ:  cpu time    0.0414: real time    0.0263
    EDDIAG:  cpu time   29.1688: real time   14.6215
  RMM-DIIS:  cpu time  101.6364: real time   51.3117
    ORTHCH:  cpu time    4.5870: real time    2.3007
       DOS:  cpu time    0.0075: real time    0.0038
    CHARGE:  cpu time    5.8882: real time    5.5857
    MIXING:  cpu time    0.0333: real time    0.0167
    --------------------------------------------
      LOOP:  cpu time  141.9799: real time   74.3470

 eigenvalue-minimisations  : 13882
[...]
   -.668E+01 -.399E+01 0.995E+03   0.669E+01 0.397E+01 -.995E+03   0.206E-01 0.330E-02 -.107E+00   -.376E-01 0.899E-02 -.248E-01
   -.479E+01 -.691E+01 0.986E+03   0.486E+01 0.694E+01 -.986E+03   -.282E-01 -.113E-01 -.660E-02   -.375E-01 -.186E-01 -.293E-01
   -.115E+01 0.134E+02 -.787E+03   0.112E+01 -.134E+02 0.788E+03   0.849E-03 0.135E-01 0.673E-01   0.299E-01 0.104E-01 -.269E-01
   -.199E+01 0.530E+01 -.767E+03   0.194E+01 -.531E+01 0.767E+03   0.121E-01 -.124E-01 0.862E-02   0.297E-01 0.251E-01 -.264E-01
   -.437E+00 -.151E+02 -.780E+03   0.420E+00 0.152E+02 0.780E+03   -.104E-01 -.211E-01 0.572E-01   0.282E-01 -.835E-02 -.278E-01
   -.545E+00 -.403E+01 -.798E+03   0.516E+00 0.403E+01 0.798E+03   0.399E-03 0.246E-01 0.550E-01   0.290E-01 -.193E-01 -.286E-01
   0.178E+02 0.192E+02 -.767E+03   -.179E+02 -.192E+02 0.767E+03   0.248E-02 -.154E-01 0.675E-01   0.268E-01 0.849E-02 -.305E-01
   0.284E+02 0.100E+02 -.755E+03   -.283E+02 -.990E+01 0.755E+03   -.110E+00 -.134E+00 -.410E-02   0.241E-01 0.248E-01 -.317E-01
   0.280E+02 -.252E+02 -.778E+03   -.278E+02 0.250E+02 0.778E+03   -.293E+00 0.265E+00 -.203E+00   0.271E-01 -.935E-02 -.329E-01
   0.142E+02 -.612E+01 -.784E+03   -.143E+02 0.612E+01 0.784E+03   0.107E-01 0.206E-01 0.462E-01   0.276E-01 -.186E-01 -.329E-01
   0.210E+01 0.267E+02 -.751E+03   -.203E+01 -.267E+02 0.751E+03   -.399E-01 -.750E-01 -.119E-01   -.290E-01 0.565E-02 -.315E-01
   0.145E+01 0.103E+02 -.733E+03   -.147E+01 -.104E+02 0.733E+03   0.486E-01 0.560E-01 0.310E+00   -.297E-01 0.218E-01 -.365E-01
   0.299E+01 -.294E+02 -.749E+03   -.291E+01 0.294E+02 0.749E+03   -.511E-01 0.111E+00 0.819E-01   -.290E-01 -.852E-02 -.344E-01
   0.874E+00 -.957E+01 -.768E+03   -.857E+00 0.955E+01 0.768E+03   0.881E-02 0.406E-01 0.211E-01   -.261E-01 -.201E-01 -.317E-01
   -.190E+02 0.210E+02 -.773E+03   0.190E+02 -.209E+02 0.773E+03   0.559E-01 -.839E-01 -.136E-01   -.283E-01 0.712E-02 -.267E-01
   -.271E+02 0.928E+01 -.752E+03   0.271E+02 -.930E+01 0.752E+03   -.189E-01 -.196E-02 0.143E+00   -.268E-01 0.229E-01 -.295E-01
   -.310E+02 -.280E+02 -.773E+03   0.306E+02 0.277E+02 0.774E+03   0.386E+00 0.305E+00 -.312E+00   -.275E-01 -.828E-02 -.300E-01
   -.146E+02 -.543E+01 -.784E+03   0.147E+02 0.544E+01 0.784E+03   -.139E-01 0.654E-02 0.517E-01   -.296E-01 -.209E-01 -.268E-01
   -.205E+02 0.145E+02 -.255E+04   0.205E+02 -.145E+02 0.254E+04   -.147E-01 0.118E-01 0.332E+01   -.172E-02 -.565E-02 0.966E-02
   -.479E+02 0.401E+02 -.251E+04   0.481E+02 -.401E+02 0.251E+04   -.136E+00 0.336E-01 0.341E+01   -.205E-02 0.188E-01 0.492E-02
   -.668E+02 -.208E+02 -.250E+04   0.670E+02 0.209E+02 0.249E+04   -.186E+00 -.408E-01 0.340E+01   0.102E-02 0.841E-02 -.640E-02
   -.277E+02 -.329E+02 -.254E+04   0.277E+02 0.330E+02 0.253E+04   -.471E-01 -.495E-01 0.333E+01   -.426E-03 -.162E-01 -.132E-02
   0.172E+02 0.123E+02 -.255E+04   -.172E+02 -.124E+02 0.254E+04   0.483E-02 0.212E-01 0.331E+01   0.291E-01 -.339E-02 -.233E-02
   0.392E+02 0.378E+02 -.252E+04   -.392E+02 -.378E+02 0.252E+04   0.555E-01 0.210E-01 0.334E+01   0.281E-01 0.209E-01 -.704E-02
   0.605E+02 -.165E+02 -.250E+04   -.607E+02 0.165E+02 0.250E+04   0.184E+00 -.116E-01 0.339E+01   0.301E-01 0.849E-02 -.174E-01
   0.267E+02 -.333E+02 -.254E+04   -.268E+02 0.333E+02 0.253E+04   0.440E-01 -.476E-01 0.335E+01   0.288E-01 -.169E-01 -.122E-01
   0.229E+02 0.256E+02 -.252E+04   -.229E+02 -.256E+02 0.252E+04   -.313E-02 -.905E-02 0.326E+01   0.209E-02 -.573E-02 -.189E-01
   0.666E+02 0.103E+03 -.241E+04   -.668E+02 -.104E+03 0.240E+04   0.170E+00 0.586E+00 0.365E+01   0.990E-03 0.194E-01 -.176E-01
   0.117E+03 -.698E+02 -.230E+04   -.118E+03 0.699E+02 0.230E+04   0.188E+00 -.597E-01 0.208E+01   0.324E-03 0.631E-02 -.296E-01
   0.334E+02 -.778E+02 -.250E+04   -.334E+02 0.781E+02 0.249E+04   0.251E-01 -.251E+00 0.343E+01   0.162E-02 -.184E-01 -.247E-01
   -.195E+02 0.297E+02 -.252E+04   0.195E+02 -.296E+02 0.252E+04   0.139E-01 -.279E-01 0.323E+01   -.297E-01 -.687E-02 -.654E-02
   -.598E+02 0.119E+03 -.240E+04   0.600E+02 -.121E+03 0.239E+04   -.107E+00 0.121E+01 0.407E+01   -.286E-01 0.155E-01 -.118E-01
   -.104E+03 -.983E+02 -.229E+04   0.104E+03 0.987E+02 0.229E+04   -.315E+00 -.404E+00 0.222E+01   -.317E-01 0.356E-02 -.217E-01
   -.319E+02 -.771E+02 -.250E+04   0.320E+02 0.772E+02 0.250E+04   -.295E-01 -.142E+00 0.335E+01   -.283E-01 -.168E-01 -.152E-01
   -.301E+01 -.589E+01 -.147E+04   0.352E+01 0.685E+01 0.147E+04   -.482E+00 -.944E+00 0.218E+01   -.128E-01 0.518E-02 -.771E-02
   0.304E+03 -.135E+03 -.176E+04   -.347E+03 0.152E+03 0.175E+04   0.434E+02 -.177E+02 0.575E+01   -.215E-02 -.329E-02 -.113E-01
   -.113E+01 0.148E+03 -.198E+04   0.150E+01 -.170E+03 0.203E+04   -.363E+00 0.216E+02 -.557E+02   -.127E-01 -.131E-01 0.105E-01
   -.305E+03 0.318E+02 -.171E+04   0.347E+03 -.381E+02 0.170E+04   -.426E+02 0.632E+01 0.125E+02   -.114E-01 0.625E-02 -.170E-01
 -----------------------------------------------------------------------------------------------
   0.146E+00 -.105E+02 0.370E+02   -.568E-13 -.142E-13 0.682E-12   -.100E+00 0.105E+02 -.357E+02   -.447E-01 0.261E-01 -.130E+01
 
 
 POSITION                                       TOTAL-FORCE (eV/Angst)
 -----------------------------------------------------------------------------------
      1.37275      1.37275     12.08797        -0.008753     -0.024122     -0.031159
      1.37275      4.11824     12.08797         0.007211      0.013105      0.007477
      1.37275      6.86373     12.08797        -0.001690     -0.017364      0.031770
      1.37275      9.60922     12.08797         0.001245      0.015032     -0.035488
      4.11824      1.37275     12.08797         0.005594     -0.003356      0.002269
      4.11824      4.11824     12.08797         0.002973      0.009594      0.002904
      4.11824      6.86373     12.08797         0.004754     -0.018427      0.007104
      4.11824      9.60922     12.08797        -0.011993     -0.009883     -0.007129
      6.86373      1.37275     12.08797         0.000406      0.000391      0.006659
      6.86373      4.11824     12.08797         0.005079     -0.000479     -0.017264
      6.86373      6.86373     12.08797         0.006691     -0.000365     -0.005506
      6.86373      9.60922     12.08797         0.003399     -0.002881      0.007089
      9.60922      1.37275     12.08797         0.001086     -0.007188     -0.008538
      9.60922      4.11824     12.08797         0.003320      0.008698      0.003985
      9.60922      6.86373     12.08797        -0.006733     -0.015232      0.014339
      9.60922      9.60922     12.08797         0.004567     -0.007987      0.001686
     10.98155     10.97751     14.04125         0.000388      0.000334      0.000191
      0.00056      2.74381     14.03682         0.000109      0.000184      0.000431
     10.97834      5.49057     14.04502         0.000346      0.000605      0.000071
     10.97889      8.22977     14.04635         0.000323      0.000767      0.000332
      2.74386     10.97587     14.04037         0.000274      0.000618      0.000761
      2.74757      2.74453     14.03600         0.000161      0.000287      0.000961
      2.75310      5.48944     14.04690        -0.000022      0.000776      0.000230
      2.74722      8.22940     14.04404         0.000315      0.000732      0.000418
      5.49098     10.98054     14.03798        -0.000597     -0.000103      0.000882
      5.49359      2.75081     14.04255        -0.000717     -0.000054      0.000905
      5.49807      5.48951     14.04460        -0.000453      0.000324      0.000902
      5.49012      8.22873     14.04195        -0.000057      0.000044      0.001127
      8.23770     10.98138     14.03937        -0.000238     -0.000079     -0.000296
      8.23698      2.75003     14.04049        -0.000323     -0.000291      0.000211
      8.23341      5.48869     14.04799        -0.000229      0.000181     -0.000002
      8.23739      8.22925     14.04294         0.000014     -0.000042      0.000294
      1.37246      1.36657     15.98121         0.000194      0.001411      0.001082
      1.37657      4.11066     15.97795        -0.000201      0.001252      0.000934
      1.37515      6.86031     15.98458         0.000222      0.001509      0.000522
      1.37215      9.60252     15.98713         0.000229      0.001162      0.001041
      4.11449      1.36718     15.97431        -0.000016      0.001180      0.002084
      4.12868      4.12347     15.99642        -0.000561      0.000728      0.001285
      4.13962      6.84454     16.01161        -0.000257      0.001323      0.000492
      4.11694      9.60124     15.98250         0.000297      0.000542      0.001838
      6.86764      1.37326     15.97807        -0.000819      0.000019      0.000189
      6.86924      4.12840     16.01223        -0.001224     -0.000530     -0.000929
      6.86287      6.86010     16.00527        -0.000302      0.000088      0.000341
      6.86285      9.60922     15.97743         0.000037     -0.000355      0.000835
      9.60959      1.37281     15.98467         0.000163     -0.000039     -0.000620
      9.61023      4.11330     15.99535         0.000254      0.000244     -0.000904
      9.58954      6.84683     16.01200         0.000324      0.000586     -0.000888
      9.60936      9.60552     15.98391         0.000285     -0.000015      0.000085
     10.98178     10.97707     17.93914        -0.000080      0.000967      0.000913
      0.01380      2.73822     17.93856        -0.001540      0.001227      0.000251
      0.02080      5.48225     17.93798        -0.001178      0.001235     -0.000096
      0.00246      8.23481     17.94108         0.000081      0.000662      0.000309
      2.74714     10.97600     17.93638        -0.000213      0.002096      0.002871
      2.74317      2.73620     17.93776        -0.000209      0.002110      0.001796
      2.73332      5.48083     17.93922         0.000285      0.001963      0.000845
      2.74261      8.23279     17.94204         0.000390      0.001420      0.001722
      5.49122      0.00054     17.93513         0.000233      0.000811      0.000154
      5.47812      2.72029     17.91533         0.000756      0.001549      0.001878
      5.46580      5.51188     18.03044         0.000188      0.000203     -0.001820
      5.49195      8.26037     17.94097         0.000469     -0.000282      0.001266
      8.23453      0.00115     17.93706        -0.000128      0.000154     -0.000423
      8.24242      2.71204     17.94975        -0.000722      0.001402     -0.001534
      8.27685      5.55388     17.99691        -0.001574     -0.004021      0.001840
      8.23380      8.27232     17.94754         0.000386     -0.001597     -0.000189
      6.92330      4.64300     20.61201         0.010087      0.006917      0.003706
      5.84218      5.14336     20.10890        -0.003753      0.009950     -0.006750
      6.93029      4.19742     21.75473        -0.009164      0.011901      0.004692
      8.02518      4.59986     19.90388        -0.009391      0.008409     -0.006431
 -----------------------------------------------------------------------------------
    total drift:                                0.001262     -0.001266      0.014004


--------------------------------------------------------------------------------------------------------



  FREE ENERGIE OF THE ION-ELECTRON SYSTEM (eV)
  ---------------------------------------------------
  free  energy   TOTEN  =      -361.85045396 eV

  energy  without entropy=     -361.72945871  energy(sigma->0) =     -361.81012221
 
 d Force = 0.3096219E-04[ 0.712E-05, 0.548E-04]  d Energy = 0.2451952E-04 0.644E-05
 d Force =-0.3152587E+00[-0.315E+00,-0.315E+00]  d Ewald  =-0.3152593E+00 0.598E-06


--------------------------------------------------------------------------------------------------------


    POTLOK:  cpu time    0.4708: real time    0.4566


--------------------------------------------------------------------------------------------------------


 Conjugate gradient step on ions:
 trial-energy change:   -0.000025  1 .order   -0.000031   -0.000055   -0.000007
  (g-gl).g = 0.612E-04      g.g   = 0.706E-04  gl.gl    = 0.213E-03
 g(Force)  = 0.706E-04   g(Stress)= 0.000E+00 ortho     = 0.618E-05
 gamma     =   0.28754
 trial     =   0.75709
 opt step  =   0.87008  (harmonic =   0.87008) maximal distance =0.00091601
 next E    =  -361.850461   (d E  =  -0.00003)


--------------------------------------------------------------------------------------------------------


  
 reached required accuracy - stopping structural energy minimisation
     LOOP+:  cpu time  768.4679: real time  401.5602
    4ORBIT:  cpu time    0.0000: real time    0.0000
 


 total charge     
 
# of ion       s       p       d       tot
------------------------------------------
    1        0.446   0.308   8.522   9.275
    2        0.445   0.307   8.523   9.275
    3        0.445   0.306   8.522   9.273
    4        0.444   0.307   8.525   9.275
    5        0.445   0.308   8.522   9.274
    6        0.445   0.308   8.523   9.276
    7        0.445   0.308   8.522   9.275
    8        0.446   0.307   8.522   9.275
    9        0.445   0.307   8.523   9.275
   10        0.446   0.308   8.523   9.276
   11        0.445   0.308   8.523   9.276
   12        0.445   0.307   8.523   9.275
   13        0.445   0.308   8.522   9.275
   14        0.445   0.308   8.523   9.276
   15        0.445   0.307   8.522   9.275
   16        0.445   0.307   8.522   9.274
   17        0.488   0.482   8.459   9.428
   18        0.487   0.481   8.460   9.427
   19        0.485   0.478   8.457   9.421
   20        0.486   0.477   8.463   9.426
   21        0.488   0.483   8.457   9.428
   22        0.487   0.480   8.462   9.429
   23        0.486   0.479   8.457   9.422
   24        0.486   0.478   8.461   9.425
   25        0.487   0.481   8.460   9.428
   26        0.486   0.479   8.457   9.422
   27        0.487   0.481   8.457   9.426
   28        0.486   0.479   8.459   9.424
   29        0.487   0.481   8.459   9.428
   30        0.486   0.480   8.458   9.424
   31        0.487   0.481   8.457   9.425
   32        0.486   0.479   8.458   9.423
   33        0.488   0.482   8.458   9.428
   34        0.487   0.482   8.459   9.429
   35        0.486   0.480   8.458   9.424
   36        0.489   0.482   8.457   9.428
   37        0.488   0.483   8.458   9.429
   38        0.487   0.478   8.459   9.425
   39        0.489   0.480   8.455   9.424
   40        0.487   0.481   8.458   9.427
   41        0.488   0.483   8.457   9.428
   42        0.480   0.463   8.464   9.408
   43        0.488   0.476   8.462   9.425
   44        0.487   0.483   8.460   9.430
   45        0.488   0.483   8.456   9.427
   46        0.485   0.474   8.462   9.422
   47        0.491   0.483   8.453   9.427
   48        0.487   0.481   8.459   9.427
   49        0.444   0.307   8.524   9.274
   50        0.445   0.307   8.526   9.278
   51        0.448   0.313   8.521   9.283
   52        0.443   0.306   8.524   9.274
   53        0.444   0.307   8.523   9.275
   54        0.445   0.309   8.524   9.278
   55        0.448   0.313   8.520   9.281
   56        0.443   0.306   8.524   9.274
   57        0.448   0.312   8.520   9.280
   58        0.443   0.309   8.535   9.287
   59        0.430   0.378   8.465   9.273
   60        0.445   0.310   8.525   9.280
   61        0.450   0.314   8.519   9.284
   62        0.420   0.302   8.534   9.256
   63        0.437   0.383   8.471   9.291
   64        0.448   0.313   8.524   9.285
   65        1.224   2.543   0.000   3.767
   66        1.613   3.445   0.000   5.058
   67        1.628   3.468   0.000   5.096
   68        1.613   3.432   0.000   5.044
--------------------------------------------------
tot         35.861  38.248 543.319 617.428
 


 magnetization (x)
 
# of ion       s       p       d       tot
------------------------------------------
    1        0.000  -0.003   0.224   0.222
    2       -0.001  -0.004   0.207   0.202
    3       -0.002  -0.003   0.207   0.203
    4        0.001  -0.003   0.214   0.212
    5       -0.001  -0.003   0.215   0.211
    6       -0.001  -0.004   0.214   0.209
    7       -0.001  -0.003   0.215   0.211
    8       -0.000  -0.003   0.216   0.213
    9       -0.001  -0.004   0.211   0.206
   10       -0.000  -0.004   0.217   0.213
   11       -0.000  -0.003   0.219   0.216
   12       -0.001  -0.004   0.205   0.201
   13       -0.000  -0.003   0.219   0.215
   14       -0.001  -0.004   0.213   0.208
   15       -0.001  -0.004   0.210   0.206
   16       -0.000  -0.003   0.214   0.210
   17       -0.002  -0.006   0.317   0.309
   18       -0.002  -0.006   0.325   0.317
   19       -0.002  -0.006   0.317   0.309
   20       -0.002  -0.006   0.296   0.288
   21       -0.002  -0.006   0.318   0.310
   22       -0.002  -0.006   0.320   0.312
   23       -0.002  -0.006   0.316   0.308
   24       -0.002  -0.006   0.306   0.298
   25       -0.002  -0.006   0.315   0.307
   26       -0.002  -0.006   0.322   0.314
   27       -0.002  -0.006   0.324   0.316
   28       -0.002  -0.006   0.318   0.310
   29       -0.002  -0.006   0.319   0.310
   30       -0.002  -0.006   0.325   0.317
   31       -0.002  -0.006   0.314   0.306
   32       -0.002  -0.006   0.321   0.313
   33       -0.002  -0.006   0.329   0.320
   34       -0.002  -0.006   0.321   0.312
   35       -0.002  -0.006   0.306   0.298
   36       -0.001  -0.006   0.316   0.308
   37       -0.002  -0.006   0.320   0.312
   38       -0.002  -0.006   0.312   0.304
   39       -0.002  -0.006   0.288   0.280
   40       -0.002  -0.006   0.315   0.307
   41       -0.002  -0.006   0.317   0.308
   42       -0.001  -0.006   0.332   0.325
   43       -0.001  -0.006   0.310   0.303
   44       -0.002  -0.006   0.315   0.307
   45       -0.002  -0.006   0.323   0.315
   46       -0.002  -0.006   0.324   0.316
   47       -0.002  -0.006   0.272   0.264
   48       -0.002  -0.006   0.316   0.308
   49       -0.001  -0.004   0.204   0.200
   50       -0.001  -0.004   0.223   0.219
   51       -0.000  -0.003   0.208   0.204
   52       -0.001  -0.003   0.202   0.198
   53       -0.001  -0.004   0.201   0.196
   54       -0.001  -0.004   0.217   0.213
   55       -0.000  -0.004   0.206   0.202
   56       -0.001  -0.003   0.203   0.199
   57       -0.000  -0.003   0.199   0.196
   58       -0.001  -0.003   0.230   0.226
   59       -0.002  -0.004   0.185   0.179
   60       -0.001  -0.004   0.217   0.212
   61       -0.000  -0.004   0.202   0.198
   62       -0.001  -0.003   0.227   0.223
   63       -0.002  -0.003   0.180   0.175
   64       -0.001  -0.004   0.212   0.208
   65       -0.000  -0.001   0.000  -0.001
   66        0.001   0.014   0.000   0.014
   67        0.000   0.007   0.000   0.007
   68        0.001   0.015   0.000   0.016
--------------------------------------------------
tot         -0.080  -0.277  16.829  16.472
 

 total amount of memory used by VASP MPI-rank0   519030. kBytes
=======================================================================

   base      :      30000. kBytes
   nonlr-proj:      51359. kBytes
   fftplans  :      15515. kBytes
   grid      :     111379. kBytes
   one-center:       2115. kBytes
   wavefun   :     308662. kBytes
 
  
  
 General timing and accounting informations for this job:
 ========================================================
  
                  Total CPU time used (sec):    14516.407
                            User time (sec):    14039.679
                          System time (sec):      476.728
                         Elapsed time (sec):     7613.668
  
                   Maximum memory used (kb):     1230804.
                   Average memory used (kb):           0.
  
                          Minor page faults:      2232449
                          Major page faults:           19
                 Voluntary context switches:        85273
